CAS,Comment,Formula,IE,Method,Name,Refer
 65989-13-1, , C,7.1,PE,"Naphtho[1,8-cd:4,5-c',d']bis[1,2,6]thiadiazine","Boutique, Pfister-Guillouzo, et al., 1984"
 184-05-4,Vertical value, C,8.17 ¡À 0.02,PE,"6,7,13,14-Tetrathiadispiro[4.2.4.2]tetradecane","Guimon, Guimon, et al., 1976"
 22515-25-9,Vertical value, C,7.93 ¡À 0.05,PE,"Silane,trimethyl[4-(methylthio)phenyl]-","Colonna, Danieli, et al., 1976"
 17873-08-4,Vertical value; , C,7.81 ¡À 0.05,PE,"Silane, trimethyl[(phenylthio)methyl]-","Colonna, Danieli, et al., 1976"
 77471-74-0,LLK, C,8.22,PE,8-Methylene-cis-3-thiabicyclo[4.4.0]decane,"Sarneel, Worrell, et al., 1980"
 875-06-9,LLK, C,8.13,PE,"2-Norbornanethione, 1,3,3-trimethyl-","Frost, Westwood, et al., 1980"
 26825-18-3,Vertical value; , C,8.4,PE,"Thiepin, 4,5-didehydro-2,3,6,7-tetrahydro-3,3,6,6-tetramethyl-","Jian-qi, Mohraz, et al., 1983"
 79-92-5,, C,¡Ü8.86,PE,Camphene,"Nesmeyanov, Baiden, et al., 1981"
 13466-78-9, , C,8.4,PE,3-Carene,"Chuiko, Manukov, et al., 1985"
 281-23-2,LLK, C,9.2,PE,Adamantane,"Bewick, Edwards, et al., 1976"
 554-61-0, , C,8.2,PE,2-Carene,"Chuiko, Manukov, et al., 1985"
 6004-38-2,LLK, C,9.3,PI,"4,7-Methano-1H-indene, octahydro-","Fedorova, Potapov, et al., 1974"
 2825-82-3,, C,9.35 ¡À 0.05,PI,"exo-Ttricyclo[5.2.1.0(2,6)]decane","Fedorova, Denisov, et al., 1973"
 60643-94-9,Vertical value, C,8.24,PE,"3-Hexene, 2,3,4,5-tetramethyl-, (E)-","Mollere, Houk, et al., 1976"
 60643-93-8,Vertical value, C,8.27,PE,"3-Hexene, 2,3,4,5-tetramethyl-, (Z)-","Mollere, Houk, et al., 1976"
 1124-79-4,Vertical value; , C,8.68,PE,"cis,cis-1,6-Cyclodecadiene","Bischof and Heilbronner, 1970"
 2223-54-3,Vertical value, C,8.81,PE,"1,4-Cyclohexadiene, 3,3,6,6-tetramethyl-","Asmus, Klessinger, et al., 1975"
 1124-78-3,Vertical value, C,8.9,PE,"1,5-Cyclodecadiene, (E,Z)-","Bischof and Heilbronner, 1970"
 4045-44-7,LL, C,7.17,PE,"1,3-Cyclopentadiene, 1,2,3,4,5-pentamethyl-","Kiselev, Sakhabutdinov, et al., 1992"
 15840-81-0,Vertical value; , C,8.05,PE,"trans,trans-1,6-Cyclodecadiene","Bischof and Heilbronner, 1970"
 64914-27-8,Vertical value, C,7.37,PE,"Chromium,(4-bromopyridine)pentacarbonyl-","Weiner, Gin, et al., 1977"
 108034-90-8, , C,7.6,PE,"Iron, [¦Ç-[(1,2,3,4-¦Ç:1,4-¦Ç)-1,3-butadiene-1,4-diyl]]hexacarbonyldi, (fe-fe)","Casarin, Ajo, et al., 1987"
 65173-83-3,Vertical value; , C,7.4,PE,"1,3,2-Diazaphospholidin-2-amine, 1,3-dimethyl-N,N-bis(1-methylethyl)-","Worley, Hargis, et al., 1979"
 996-70-3, , C,¡Ü5.36,PI,Tetrakis(dimethylamino)ethylene,"Nakato, Ozaki, et al., 1972"
 295-37-4,LBLHLM, C,7.8,PE,"1,4,8,11-Tetraazacyclotetradecane","Baker, Armen, et al., 1983"
 532-11-6,Vertical value, C,8.11,PE,"3H-1,2-Dithiole-3-thione, 5-(4-methoxyphenyl)-","Gonbeau, Guimon, et al., 1975"
 54724-62-8, , C,7.1,PE,"1,3,2,4-Diazasila-¦Ë2-stannetane, 1,3-di(tert-butyl)-2,2-dimethyl-","Andreocci, Cauletti, et al., 1991"
 84806-16-6, , C,6.8,PE,"1,3,2,4-Diazasila-¦Ë2-plumbetane, 1,3-di(tert-butyl)-2,2-dimethyl-","Andreocci, Cauletti, et al., 1991"
 1293-65-8,, C,7.0 ¡À 0.05,PI,"Ferrocene, 1,1'-dibromo-","Barfuss, Emrich, et al., 1990"
 23062-34-2,Vertical value, C,8.3,PE,"4H,6H-Dithieno[3,4-c:3',4'-e]oxepin","Meunier and Pfister-Guillouzo, 1977"
 63286-53-3,Vertical value, C,8.15,PE,"Dithieno[2,3-c:3',2'-e]oxepin,4,6-dihydro-","Meunier and Pfister-Guillouzo, 1977"
 52598-09-1,Vertical value; , C,8.13,PE,(n-c3H7)2Nn(c2H5)2,"Nelsen, 1984"
 21609-15-4,Vertical value, C,7.65,PE,"Nickel,bis(1,1,1-trifluoro-2,4-pentanedithionato-s,s')-","Cauletti and Furlani, 1975"
 16038-29-2,, C,9.4 ¡À 0.1,EI,"Bis(1,1,1-trifluoro-2,4-pentanedionato)zinc","Reichert, Bancroft, et al., 1970"
 15744-66-8,Vertical value, C,7.8,PE,"Nickel, bis(1,1,1-trifluoro-4-thioxo-2-pentanonato-O,S)-","Cauletti and Furlani, 1975"
 14324-83-5,Vertical value, C,8.25,PE,"Nickel,bis(1,1,1-trifluoro-2,4-pentanedionato-O,O')-","Cauletti and Furlani, 1975"
 116149-14-5,LBLHLM, C,6.72 ¡À 0.05,EQ,"Hydrazine, N,N'-dibutyl-N,N'-dimethyl-","Rumack, 1986"
 52291-46-0,Vertical value; , C,7.93,PE,"Hydrazine, 1,2-di-tert-butyl 1,2-dimethyl-","Nelsen, 1984"
 68970-05-8,LBLHLM, C,6.70 ¡À 0.05,EQ,"Hydrazine, 1,2-di-isobutyl 1,2-dimethyl-","Rumack, 1986"
 60678-67-3,Vertical value; , C,8.23,PE,"1,1-Dibutyl-2,2-dimethylhydrazine","Nelsen, 1984"
 60678-74-2,Vertical value, C,8.23,PE,"Hydrazine, 1,1-di-isobutyl 2,2-dimethyl-","Nelsen, 1984"
 49840-64-4,Vertical value; , C,7.9,PE,"Hydrazine, tri-isopropyl methyl-","Nelsen, 1984"
 90-33-5,Vertical value, C,8.47,PE,Hymecromone,"Redchenko, Safronov, et al., 1992"
 108034-92-0, , C,7.9,PE,"Osmium, [¦Ç-[(1,2,3,4-¦Ç:1,4-¦Ç)-1,3-butadiene-1,4-diyl]]hexacarbonyldi, (os-os)","Casarin, Ajo, et al., 1987"
 108034-91-9, , C,7.6,PE,"Ruthenium, [¦Ç-[(1,2,3,4-¦Ç:1,4-¦Ç)-1,3-butadiene-1,4-diyl]]hexacarbonyldi-, (ru-ru)","Casarin, Ajo, et al., 1987"
 90-15-3,LLK, C,7.76 ¡À 0.03,PI,1-Naphthalenol,"Potapov, Kardash, et al., 1972"
 135-19-3,LBLHLM, C,7.89 ¡À 0.06,S,2-Naphthalenol,"Oikawa, Abe, et al., 1985"
 26307-30-2,Vertical value, C,8.64,PE,"2-Cyclopropen-1-one,2-methyl-3-phenyl-","Dehmlow, Dehmlow, et al., 1977"
 571-60-8,, C,7.62 ¡À 0.03,PI,"1,4-Naphthalenediol","Potapov, Kardash, et al., 1972"
 12128-81-3,Vertical value, C,7.32,PE,"Tungsten, tricarbonyl[(1,2,3,4,5,6-¦Ç","Fragala, Ciliberto, et al., 1979"
 87258-06-8,LBLHLM, C,9.3,PE,"Tricyclo[6.2.0.0(3,6)]deca-1(8),3(6)-diene-2,7-dione","Gleiter, Jahne, et al., 1985"
 4759-11-9,LBLHLM, C,7.9,PE,"11-Oxabicyclo[4.4.1]undeca-1,3,5,7,9-pentaene","Andrea, Cerfontain, et al., 1984"
 81969-73-5,LBLHLM, C,8.5,PE,anti-Tricyclo[7.1.0.0]decane,"Spanget-Larsen, Gleiter, et al., 1982"
 53764-10-6,LLK, C,8.7,PE,"Spiro[bicyclo[2.2.2]octane-2,1'-cyclopropane]","Asmus and Klessinger, 1975"
 70058-00-3,, C,8.57 ¡À 0.01,PE,2-Methyl-1-nonene-3-yne,"Carlier, Mouvier, et al., 1979"
 41539-64-4,, C,7.77 ¡À 0.05,EI,"1,2,3,5,5 And 1,2,4,5,5-pentamethylcyclopentadiene mixture","Meyer and Harrison, 1964"
 27720-84-9,, C,7.82,PI,"Cyclopropane,1,1'-(2-methyl-1-propenylidene)bis-","Nishida, Moritani, et al., 1972"
 14803-30-6,, C,7.57,PE,"Cyclopropane, trimethyl(2-methyl-1-propenylidene)-","Pasto, Fehlner, et al., 1976"
 22769-00-2,Vertical value, C,8.38,PE,"Cyclobutane, 1,2-dipropenyl-","Bischof, Gleiter, et al., 1981"
 24029-74-1,LBLHLM, C,8.5,PE,Dispiro[2.0.2.4]decane,"Spanget-Larsen, Gleiter, et al., 1982"
 24518-94-3,Vertical value; , C,9.17,PE,Dispiro[2.2.2.2]decane,"Asmus, Klessinger, et al., 1975"
 40916-48-1,Vertical value, C,9,PE,"Bicyclo[4.2.1]nonane,9-methylene-","Reetz, Hoffmann, et al., 1973"
 66438-89-9,Vertical value, C,9.33,PE,"Cyclobutane,2-ethynyl-1,1,3,3-tetramethyl","Bruckmann and Klessinger, 1978"
 70058-04-7,, C,7.89 ¡À 0.01,PE,"2-Hexen-4-yne, 2-methyl-3-(1-methylethyl)-","Carlier, Mouvier, et al., 1979"
 7125-60-2,Vertical value, C,8.25 ¡À 0.02,PE,1(7)-Bicyclo[5.3.0]decane,"Brown, Buschek, et al., 1983"
 249-87-6,Vertical value, C,9.45,PE,Tricyclo[4.2.2.0,"Bruckmann and Klessinger, 1972"
 283-49-8,, C,8.71,PE,"Tricyclo[3.3.2.02,8]decane","Bischof, Gleiter, et al., 1970"
 47115-08-2,Vertical value, C,9.35,PE,"Cobalt, bis(1,1,1-trifluoro-2,4-pentanedionato-o,o')-","Cauletti, Furlani, et al., 1980"
 91-20-3,LL, C,8.12 ¡À 0.02,TRPI,Naphthalene,"Gotkis, Oleinikova, et al., 1993"
 6596-86-7,, C,7.32,PE,2-Methylene-2H-indene,"Gross, Schulz, et al., 1981"
 275-51-4,LL, C,7.38 ¡À 0.03,PI,Azulene,"Jochims, Rasekh, et al., 1992"
 34305-47-0,LLK, C,8,PE,"1,2,3-Metheno-1H-indene,2,3-dihydro","Gleiter, Gubernator, et al., 1981"
 17995-33-4,, C,8.45 ¡À 0.05,PE,"1,3,5,7-Tetrasilatricyclo[3.3.1.1","Schmidt, Wilkins, et al., 1973"
 16054-35-6,RDSH, C,7.95 ¡À 0.04,EI,"2,7-Disilaoct-4-ene, 2,2,7,7-tetramethyl-, (E)-","Bock and Seidl, 1968"
 1293-67-0,LL, C,6.97 ¡À 0.05,PI,"Ferrocene, 1,1'-dichloro-","Barfuss, Emrich, et al., 1990"
 12287-95-5,, C,7.1 ¡À 0.2,EI,"Ferrocene, 1,2-dichloro-","Barfuss, Grade, et al., 1987"
 88090-34-0,, C,8.06,PE,"[4.2.2]Propella-2,4,7,9-tetraene","Gleiter, Krennrich, et al., 1986"
 14324-82-4,RDSH, C,9.1 ¡À 0.1,EI,"bis(1,1,1-trifluoropentane-2,4-dionato-O,O')copper","Reichert, Bancroft, et al., 1970"
 21429-77-6,, C,9.03 ¡À 0.05,EI,"1,1,1,5,5,5-Hexafluoro-2,4-pentanedionato(2,4-pentanedionato)copper","Reichert and Westmore, 1970"
 76826-48-7,Vertical value, C,8.45,PE,"Boranamine, b,b-di-tert-butyl-N,N-dimethyl-","Noth and Prigge, 1986"
 64516-16-1,Vertical value, C,9.4,PE,"Titanium, methyltripropoxy-","Basso-Bert, Cassoux, et al., 1977"
 64516-17-2,Vertical value, C,9.1,PE,"Titanium, methoxytris(2-propanolato)-","Basso-Bert, Cassoux, et al., 1977"
 76795-95-4,Vertical value; , C,8.36,PE,"1,1-Bis-(trimethylsiloxy)-1-sila-3-cyclopentene","Khvostenko, Zykov, et al., 1981"
 41749-34-2,LBLHLM, C,8.1,PE,¦Ì,"Granozzi, Tondello, et al., 1982"
 18433-91-5, , C,8.2,PE,¦Ì,"Granozzi, Tondello, et al., 1982"
 98195-03-0,Vertical value, C,8.18 ¡À 0.05,PE,"Methanethiol,tris(trimethylsilyl)-","Block, Yencha, et al., 1988"
 764-93-2,LLK, C,9.91 ¡À 0.02,PI,1-Decyne,"Rang and Martinson, 1978"
 42900-30-1,, C,7.80 ¡À 0.01,EI,"cis,trans-2-Methyl-1-thiadecalin","Mikaya, Trusova, et al., 1982"
 42900-29-8,, C,7.86 ¡À 0.01,EI,"trans, cis-2-Methyl-1-thiadecalin","Mikaya, Trusova, et al., 1982"
 55849-06-4,Vertical value; , C,8.35,PE,"Thiepin, 2,3,6,7-tetrahydro-3,3,6,6-tetramethyl-","Jian-qi, Mohraz, et al., 1983"
 4526-07-2,RDSH, C,9.23 ¡À 0.04,EI,"1,4-Bis(trimethylsilyl)-1,3-butadiyne","Bock and Seidl, 1968"
 84449-09-2,Vertical value, C,7.95,PE,"1,2-Dithiete, 3,4-bis(1,1-dimethylethyl)-","Jian-qi, Mohraz, et al., 1983"
 14024-56-7,Vertical value, C,8.42,PE,"Magnesium, bis(2,4-pentanedionato-O,O')-, (T-4)-","Brittain and Disch, 1975"
 86596-79-4,Vertical value; , C,9.55,PE,"Thiepin, 2,3,6,7-tetrahydro-3,3,6,6-tetramethyl-1,1-dioxide","Jian-qi, Mohraz, et al., 1983"
 5718-73-0, , C,8.09,PE,"2,3-Dioxabicyclo[2.2.2]octane,1-methyl-4-(1-methylethyl-","Brown, 1975"
 4388-88-9,Vertical value, C,8.66 ¡À 0.05,PE,"2,2,5,5-Tetramethyl-3,4-hexanedione","Verheijdt and Cerfontain, 1982"
 59880-84-1,Vertical value, C,9.14,PE,"Bicyclo[2.2.2]octane,1,4-dimethoxy-","Brown, 1976"
 55811-52-4,LBLHLM, C,8,PE,2-Triethoxysilylfuran,"Zykov, Erchak, et al., 1983"
 24974-78-5,Vertical value, C,7.15,PE,"1,5-Diaza-2,4,6,8-tetrasilabicyclo[3.3.0]octane,2,2,4,4,6,6,8,8-octamethyl-","Bock, Kaim, et al., 1980"
 57722-40-4,Vertical value, C,8.09,PE,"Bicyclo[2.2.1]hept-2-ene,2-trimethylsiloxy-","Houk, Rondan, et al., 1983"
 1502-06-3,Vertical value, C,9.19,PE,Cyclodecanone,"Spanka and Rademacher, 1986"
 35376-39-7,Vertical value, C,9.33 ¡À 0.02,PE,cis-p-2-Menthen-1-ol,"Brown, Marcinko, et al., 1979"
 98-53-3,, C,9.04,PE,"Cyclohexanone, 4-(1,1-dimethylethyl)-","Loudet, Grimaud, et al., 1976"
 64869-37-0,Vertical value, C,7.05,PE,"Naphtho[1,8-cd]-1,2-telluraselenole","Bock, Brahler, et al., 1981"
 36579-71-2,LLK, C,7.06,PE,"Naphtho[1,8-cd]-1,2-diselenole","Bock, Brahler, et al., 1981"
 18309-28-9,, C,9.86,EI,"Cyclohexanone, 5-methyl-2-(1-methylethyl)-, (2S-cis)-","Bunau, Schade, et al., 1967"
 35376-40-0,Vertical value, C,9.18 ¡À 0.02,PE,"2-Cyclohexen-1-ol,4-(1,1-dimethylethyl)-trans-","Brown, Marcinko, et al., 1979"
 3019-19-0,LLK, C,8.2 ¡À 0.1,EI,"Benzene, [(1,1-dimethylethyl)thio]-","Distefano, Ricci, et al., 1974"
 14905-81-8,Vertical value, C,8.38,PE,"Benzene, 1-methyl-4-[(1-methylethyl)thio]-","Dewar, Ernstbrunner, et al., 1974"
 14905-80-7,Vertical value; , C,8.38,PE,"Benzene, 1-methyl-3-[(1-methylethyl)thio]-","Dewar, Ernstbrunner, et al., 1974"
 89909-08-0, , C,8.2,PE,"1,5-Dithia-2,4,6,8-tetrazocine, 3,7-di-tert-butyl-","Gleiter, Bartetzko, et al., 1984"
 42900-28-7,, C,7.76 ¡À 0.01,EI,"2H-1-Benzothiopyran, octahydro-2-methyl-","Mikaya, Trusova, et al., 1982"
 83349-26-2,, C,7.85 ¡À 0.02,EI,"cis,cis-2-Methyl-1-thiadecalin","Mikaya, Trusova, et al., 1982"
 55204-47-2,Vertical value, C,8.58,PE,"3H-Pyrazole,4,5-dihydro-3,3,5,5-tetramethyl-4-(1-methylethylidene)-","Houk, Chang, et al., 1975"
 72282-72-5,Vertical value; , C,8.08,PE,"1,4-Ethanopyridazino[1,2-a]pyridazine,octahydo-","Nelsen, 1984"
 53779-88-7,Vertical value, C,7.43,PE,"2,3-Diazabicyclo[2.2.2]oct-5-ene,1,2,3,4-tetramethyl-","Nelsen and Buschek, 1974"
 100098-23-5,, C,6.7 ¡À 0.05,PE,"1,5-Diazatricyclo[4.2.2.2","Honegger, Yang, et al., 1985"
 2764-87-6,, C,8.41,CTS,"1H-2-Silaindene,2,3-dihydro-2,2-dimethyl-","Pitt, 1970"
 51884-33-4,Vertical value, C,8.36 ¡À 0.05,PE,"3-Hexanone, 4-diazo-2,2,5,5-tetramethyl-","Modelli, Innorta, et al., 1980"
 67139-53-1,, C,7.8 ¡À 0.15,EI,"8-Azabicyclo[3.2.1]octan-3-ol,8-methyl-methylcarbamate(ester),exo-","Grutzmacher and Lange, 1978"
 67139-52-0,, C,8.2 ¡À 0.15,EI,"8-Azabicyclo[3.2.1]octan-3-ol,8-methyl-methylcarbamate(ester),endo-","Grutzmacher and Lange, 1978"
 79747-04-9,Vertical value, C,9. ¡À 1.,PE,"2,8,9-Trioxa-5-aza-1-silabicyclo[3.3.3]undecane-1-butane nitrile","Peel and Dianxum, 1988"
 63263-02-5,Vertical value, C,7.7,PE,"2-Propenoic acid, 3-[(1-methylethyl)(1-methylethylidene)hydrazino]-, methyl ester","Dreckschmidt, Kessel, et al., 1977"
 55204-45-0,Vertical value, C,8.74,PE,"2-Propanol, 2,2'-azobis-, diacetate (ester), (E)-","Houk, Chang, et al., 1975"
 74773-76-5,Vertical value, C,8.03,PE,"9-Azabicyclo[3.3.1]nonan-3-one, 9-dimethylamino-","Nelsen, Kessel, et al., 1980"
 17158-48-4,, C,8.54,CTS,"1H-1-Silaindene, 2,3-dihydro-1,1-dimethyl-","Pitt, 1970"
 15631-22-8,, C,7.54,EI,Bis(trimethylphosphite-p-)molybdenum tetracarbonyl,"Innorta, Distefano, et al., 1968"
 19372-47-5,, C,9.0 ¡À 0.05,EI,"Iron, tetracarbonyl(hexamethylphosphorous triamide-P)-","Saalfeld, DeCorpo, et al., 1972"
 493-02-7,LLK, C,9.32 ¡À 0.05,PI,"Naphthalene, decahydro-, trans-","Mikaya and Zaikin, 1980"
 38573-92-1,Vertical value, C,8.45,PE,"Stannane,bicyclo[2.2.1]hept-2-en-2-yltrimethyl-","Hosomi and Traylor, 1975"
 12266-92-1,Vertical value, C,7.76,PE,"Platinum, [(1,2,5,6-¦Ç)-1,5-cyclooctadiene]dimethyl-","Yang, Bancroft, et al., 1989"
 493-01-6,LLK, C,9.32 ¡À 0.05,PI,"Naphthalene, decahydro-, cis-","Mikaya and Zaikin, 1980"
 3282-53-9,, C,8.41 ¡À 0.01,PE,"Cyclohexene, 1-butyl-","Rang, Paldoia, et al., 1974"
 4291-98-9,, C,8.45 ¡À 0.02,PE,"Cyclopentene, 1-pentyl-","Rang, Paldoia, et al., 1974"
 22614-53-5,, C,7.3,EI,"Chromium, tetracarbonylbis(phosphorous acid)-, hexamethyl ester","Innorta, Distefano, et al., 1968"
 43062-19-7,Vertical value, C,7.22,PE,"Nickel, bis[(1,2,3-¦Ç)-2-pentenyl]-","Batich, 1976"
 37689-14-8,, C,8.84 ¡À 0.02,PE,"Cyclopentene,3-pentyl-","Rang, Paldoia, et al., 1974"
 21524-26-5,, C,8.85 ¡À 0.02,PE,"Cyclohexene,4-butyl-","Rang, Paldoia, et al., 1974"
 33306-56-8,, C,7.58 ¡À 0.07,PI,"Ferrocene, 1,1',2,2',3,3',4,4'-octachloro-","Barfuss, Emrich, et al., 1990"
 91-17-8,LBLHLM, C,9.14,EQ,"Naphthalene, decahydro-","Sieck and Mautner(Meot-Ner), 1982"
 3983-07-1,, C,8.80 ¡À 0.02,PE,"Cyclohexene,3-butyl-","Rang, Paldoia, et al., 1974"
 1942-46-7,LLK, C,9.14 ¡À 0.02,PI,5-Decyne,"Rang and Martinson, 1978"
 2384-70-5,LLK, C,9.30 ¡À 0.02,PI,2-Decyne,"Rang and Martinson, 1978"
 2384-85-2,LLK, C,9.19 ¡À 0.02,PI,3-Decyne,"Rang and Martinson, 1978"
 2384-86-3,LLK, C,9.17 ¡À 0.02,PI,4-Decyne,"Rang and Martinson, 1978"
 935-31-9,LLK, C,8.97 ¡À 0.15,EI,"Cyclodecene, (Z)-","Remane, Graefe, et al., 1972"
 4104-56-7,, C,8.77 ¡À 0.02,PE,"Cyclohexene, 3-(2-methylpropyl)-","Rang, Paldoia, et al., 1974"
 3983-03-7,, C,8.40 ¡À 0.01,PE,"Cyclohexene,1-(2-methylpropyl)-","Rang, Paldoia, et al., 1974"
 37689-15-9,, C,8.44 ¡À 0.02,PE,"Cyclopentene, 1-(3-methylbutyl)-","Rang, Paldoia, et al., 1974"
 37689-16-0,, C,8.83 ¡À 0.02,PE,"Cyclopentene,3-(3-methylbutyl)-","Rang, Paldoia, et al., 1974"
 2198-20-1,LLK, C,8.91 ¡À 0.15,EI,"Cyclodecene, (E)-","Remane, Graefe, et al., 1972"
 15232-91-4,, C,8.74 ¡À 0.02,PE,"Cyclohexene,3-(1-methylpropyl)-","Rang, Paldoia, et al., 1974"
 17530-24-4,LBLHLM, C,8.98,PI,di-t-Butylacetylene,"Orlov, Boganov, et al., 1985"
 554-59-6, , C,8.6,PE,"Bicyclo[4.1.0]heptane, 3,7,7-trimethyl-","Chuiko, Manukov, et al., 1985"
 3618-12-0,Vertical value, C,8.98,PE,Cyclodecene,"Clary, Lewis, et al., 1974"
 14072-87-8,Vertical value, C,8.94 ¡À 0.02,PE,"Cyclohexene, 3-(1,1-dimethylethyl)-","Brown, Marcinko, et al., 1979"
 12557-89-0,, C,8.88 ¡À 0.05,EI,"Cobalt,hexacarbonyl(1,1,1,4,4,4-hexafluoro-2-butyne)di-","Gambino, Vaglio, et al., 1974"
 66438-87-7,Vertical value, C,9.1,PE,"Cyclobutane,2-ethenyl-1,1,3,3-tetramethyl","Bruckmann and Klessinger, 1978"
 5908-41-8,LLK, C,7.96,PE,"Silane,benzoyltrimethyl-","Brown, 1975"
 2111-75-3,, C,10.1,EI,"1-Cyclohexene-1-carboxaldehyde, 4-(1-methylethenyl)-","Bunau, Schade, et al., 1967"
 4170-71-2,Vertical value; , C,8.5,PE,Phenyl tert-butyl sulfoxide,"Mohraz, Jian-qi, et al., 1981"
 14024-63-6,LBLHLM, C,7.8,PE,Bis(acetylacetonato)zinc,"Kitagawa, Morishima, et al., 1983"
 15170-57-7,Vertical value, C,7.6,PE,Platinum(II) acetylacetonate,"Fragala, Costanzo, et al., 1980"
 14024-61-4,Vertical value, C,7.79,PE,Palladium(II) acetylacetonate,"Fragala, Costanzo, et al., 1980"
 2441-46-5,, C,7.25,CTS,"1,2,4,5-Tetramethoxybenzene","Verhoeven, Dirkx, et al., 1969"
 57744-39-5,Vertical value, C,9.1,PE,"1,2,3-Cyclohexanetrione,4,4,6,6-tetramethyl-","Bischof, Gleiter, et al., 1975"
 529-01-1,, C,9.53,EI,"2-Cyclohexen-1-one, 3-methyl-6-(1-methylethenyl)-","Bunau, Schade, et al., 1967"
 88-18-6,LLK, C,8.10 ¡À 0.02,PE,"Phenol, 2-(1,1-dimethylethyl)-","Maier and Turner, 1973"
 700-58-3,LLK, C,8.62,PE,2-Adamantanone,"Kovac and Klasinc, 1978"
 1638-22-8,, C,8.7 ¡À 0.1,EI,"Phenol, 4-butyl-","Lightner, Majeti, et al., 1972"
 585-34-2,Vertical value; , C,8.4,PE,"Phenol, m-tert-butyl-","Cetinkaya, Lappert, et al., 1983"
 92688-78-3,LBLHLM, C,9.2,PE,"4,7-Ethanobenzo[c]thiophene, 1,3,3a,4,7,7a-hexahydro-2,2-oxide, (3a¦Á,4¦Á,7¦Á,.+/-.,7a¦Á)-","Aitken, Gosney, et al., 1984"
 4170-72-3,Vertical value; , C,9.7,PE,Phenyl t-butyl sulfone,"Mohraz, Jian-qi, et al., 1981"
 92688-81-8,LBLHLM, C,9.2,PE,"4,7-Ethanobenzo[b]thiophene, 2,3,3a,4,7,7a-hexahydro-1,1-dioxide","Aitken, Gosney, et al., 1984"
 465-29-2,Vertical value; , C,8.71 ¡À 0.05,PE,dl-Camphoroquinone,"Verheijdt and Cerfontain, 1982"
 527-18-4,, C,7.48 ¡À 0.05,PI,Durohydroquinone,"Potapov, Kardash, et al., 1972"
 32350-52-0,, C,8.9 ¡À 0.1,EI,Tricyclo[3.2.1.0,"Brion, Farmer, et al., 1970"
 14224-84-1,, C,8.6 ¡À 0.1,EI,Tricyclo[3.2.1.0,"Brion, Farmer, et al., 1970"
 32350-50-8,, C,9.3 ¡À 0.1,EI,Tricyclo[3.2.1.0,"Brion, Farmer, et al., 1970"
 32350-51-9,, C,9.0 ¡À 0.1,EI,Tricyclo[3.2.1.0,"Brion, Farmer, et al., 1970"
 20744-02-9,Vertical value, C,7.83 ¡À 0.015,PE,"Benzene,1-methoxy-4-(1-methylethoxy)-","Klessinger, Asmus, et al., 1975"
 32426-26-9,, C,8.6 ¡À 0.1,EI,Tricyclo[3.2.1.0,"Brion, Farmer, et al., 1970"
 98-54-4,LBLHLM, C,7.8,PE,"Phenol, p-tert-butyl-","Cetinkaya, Lappert, et al., 1983"
 20743-94-6,Vertical value, C,7.80 ¡À 0.015,PE,"Benzene,1-methoxy-4-propoxy-","Klessinger, Asmus, et al., 1975"
 61372-56-3,, C,8.42 ¡À 0.05,EI,"Benzene,(3-methoxypropoxy)-","Schwarz, Petersen, et al., 1977"
 31211-08-2,LLK, C,9.1,PE,"Bicyclo[2.2.1]heptane-2,5-dione,1,3,3-trimethyl-","Frost, Westwood, et al., 1980"
 18039-69-5,LBLHLM, C,7.6,PE,"dioxobis(pentane-2,4-dionato-O,O')uranium","Casarin, Ciliberto, et al., 1982"
 503-93-5,, C,9.62,EI,"2,4-Cycloheptadien-1-one, 2,6,6-trimethyl-","Bunau, Schade, et al., 1967"
 4074-43-5,, C,8.9 ¡À 0.1,EI,3-Butylphenol,"Lightner, Majeti, et al., 1972"
 6669-13-2,Vertical value; , C,8.77,PE,"Benzene, (1,1-dimethylethoxy)-","Friege and Klessinger, 1979"
 4028-66-4,Vertical value, C,8.28,PE,"Benzene, 2-methoxy-1,3,5-trimethyl-","Friege and Klessinger, 1979"
 18309-32-5,, C,9.83,EI,D-Verbenone,"Bunau, Schade, et al., 1967"
 23727-16-4,, C,9.36,EI,"Bicyclo[3.1.1]hept-2-ene-2-carboxaldehyde, 6,6-dimethyl-, (1S)-","Bunau, Schade, et al., 1967"
 6485-40-1,, C,9.77,EI,(-)-Carvone,"Bunau, Schade, et al., 1967"
 26620-08-6,Vertical value, C,8.49,PE,"Benzene,2-ethoxy-1,3-dimethyl-","Dewar, Ernstbrunner, et al., 1974"
 64725-62-8,Vertical value, C,8.28 ¡À 0.02,PE,"Bicyclo[4.2.1]nona-2,4-diene,9-methoxy, syn-","Brown and Marcinko, 1977"