CAS,Comment,Formula,IE,Method,Name,Refer
 63263-00-3,Vertical value, C,7.8,PE,"2-Propenoic acid, 3-[methyl(1-methylethylidene)hydrazino]-, methyl ester","Dreckschmidt, Kessel, et al., 1977"
 22497-19-4,Vertical value, C,8.94,PE,"3H-Pyrazole-3-carboxylic acid,4,5-dihydro-3,5,5-trimethyl-methyl ester","Houk, Chang, et al., 1975"
 63262-99-7,Vertical value, C,7.79,PE,"3-Butene-2-one, 4-[ethyl(ethylidene)hydrazino]-","Dreckschmidt, Kessel, et al., 1977"
 63263-01-4,Vertical value, C,7.88,PE,"2-Propenoic acid, 3-(ethylethylidenehydrazino)-, methyl ester","Dreckschmidt, Kessel, et al., 1977"
 54143-31-6,, C,8.03 ¡À 0.03,PE,"7,8-Diazabicyclo[4.2.2]dec-7-ene 7,8-dioxide","Bunzli, Olsen, et al., 1977"
 55790-78-8, , C,8.2,PE,"1-Pyrazoline, 3,3,5,5-tetramethyl-4-methylene-","Kindermann, Poppek, et al., 1990"
 21407-67-0,Vertical value, C,7.41,PE,"Pyrrole, 2,5-dimethyl-N-(N,N-dimethylamino)-","Zverev, 1992"
 281-29-8,Vertical value; , C,7.75,PE,"1,3-Diazatricyclo[3.3.1.1","Gleiter, Kobayashi, et al., 1976"
 32634-64-3,, C,7.38 ¡À 0.04,PE,"7,8-Diazabicyclo[4.2.2]dec-7-ene","Boyd, Bunzli, et al., 1973"
 83568-11-0,LBLHLM, C,~8.6,PE,"Ethyl-3, 4-dihydro-2, -h-pyran carboxylate","Morizur, Mercier, et al., 1982"
 71561-64-3,Vertical value, C,7.06 ¡À 0.05,PE,"Molybdenum,(chromium)tetraacetate","Coleman, Green, et al., 1979"
 2292-11-7,, C,7.8 ¡À 0.15,EI,"8-Azabicyclo[3.2.1]octane,3-bromo-8-methyl-exo-","Grutzmacher and Lange, 1978"
 48169-70-6, , C,5.81,PE,Ditungsten tetraacetate,"Chisholm, Clark, et al., 1987"
 126-81-8,LLK, C,9.28 ¡À 0.05,PE,"1,3-Cyclohexanedione, 5,5-dimethyl-","Houk, Davis, et al., 1973"
 933-52-8,LBLHLM, C,9.0 ¡À 0.02,EI,"1,3-Cyclobutanedione, 2,2,4,4-tetramethyl-","Olivares, Flesch, et al., 1984"
 93638-55-2,LBLHLM, C,9.2,PE,"Benzo[c]thiophene, 1,3,3a,4,7,7a-hexahydro-2,2-dioxide","Aitken, Gosney, et al., 1984"
 92688-79-4,LBLHLM, C,9.1,PE,"Benzo[b]thiophene, 2,3,3a,4,7,7a-hexahydro-1,1-dioxide","Aitken, Gosney, et al., 1984"
 5323-87-5,, C,8.69 ¡À 0.05,PE,3-Ethoxy-2-cyclohexen-1-one,"Houk, Davis, et al., 1973"
 28450-02-4,LBLHLM, C,8.62,PE,"Ethanone, 1-(3,4-dihydro-6-methyl-2H-pyran-2-yl)-","Morizur, Mercier, et al., 1982"
 3471-13-4,Vertical value; , C,9.45,PE,"5,5-Dimethyl-1,3-cyclohexanedione","Pfister-Guillouzo, Geribaldi, et al., 1982"
 20607-85-6,, C,9.64,PI,"2-Pentynoic acid, 4,4-dimethyl, methyl ester","Orlov, Boganov, et al., 1985"
 52148-56-8,Vertical value, C,9,PE,"7,8-Dioxabicyclo[4.2.2]dec-9-ene","Gleiter, Schang, et al., 1980"
 65651-43-6,Vertical value, C,8.62,PE,"2,3-Dioxabicyclo[2.2.1]heptane,7-[methylene(dimethyl)]-","Gleiter, Schang, et al., 1980"
 19918-17-3,, C,9.03 ¡À 0.05,EI,"2(3H)-Furanone,5-(1,1-dimethylethyl)-","Thorstad, Undheim, et al., 1975"
 7092-24-2,Vertical value, C,9.47,PE,"1,4-Dioxaspiro[4.5]dec-7-ene","Lambert, Xue, et al., 1986"
 5941-48-0,Vertical value, C,8.85,PE,"2,4-Hexadienoic acid, ethyl ester, (2E,4E)-","Worley, Webb, et al., 1979"
 57556-14-6,, C,9.25 ¡À 0.05,EI,"2(5H)-Thiophenone,3-(2,2-dimethylethyl)-","Thorstad, Undheim, et al., 1975"
 76698-82-3,LLK, C,8,PE,2-Acetylcyclohexanethione,"Jorgensen, Carlsen, et al., 1981"
 57556-04-4,, C,8.21 ¡À 0.05,EI,"3(2H)-Thiophenone,2-methyl-5-(1-methylethyl)-","Thorstad, Undheim, et al., 1975"
 15578-82-2,LLK, C,7.8,PE,"Cyclohexanone, 2-(thioacetyl)-","Jorgensen, Carlsen, et al., 1981"
 2716-23-6,LLK, C,8.8,PE,Bicyclo[2.2.2]octanone,"Carnovale, Gan, et al., 1981"
 7040-43-9,LBLHLM, C,8.1,PE,2-t-Butylfuran,"Veszpremi, Nyulaszi, et al., 1987"
 78-27-3,Vertical value, C,10.6,PE,"Cyclohexanol, 1-ethynyl-","Andreocci, Bitchev, et al., 1979"
 4694-17-1,Vertical value; , C,9.24,PE,"2-Cyclohexenone, 5,5-dimethyl-","Pfister-Guillouzo, Geribaldi, et al., 1982"
 16384-97-7,, C,9.1 ¡À 0.1,EI,Tricyclo[3.2.1.0,"Brion, Farmer, et al., 1970"
 14252-05-2,Vertical value, C,9.23,PE,Bicyclo[3.2.1]octan-3-one,"Spanka and Rademacher, 1986"
 13041-10-6,Vertical value, C,9.11,PE,"Bicyclo[2.2.1]hept-2-ene,7-methoxy-anti-","Brown, 1976"
 17190-90-8,Vertical value; , C,8.15,PE,"Bicyclo[2.2.1]hept-2-ene, 2-methoxy-","Houk, Rondan, et al., 1983"
 19245-72-8,Vertical value, C,9.25 ¡À 0.02,PE,"Bicyclo[2.2.2]oct-5-en-2-ol-(1¦Á,2¦Â,4¦Á)-","Brown and Marcinko, 1977"
 6688-07-9,Vertical value, C,9.14 ¡À 0.02,PE,"Bicyclo[2.2.2]oct-5-en-2-ol-(1¦Á,2¦Á,4¦Á)-","Brown and Marcinko, 1977"
 4734-90-1,Vertical value, C,9.12,PE,3-Cycloocten-1-one,"Hentrich, Gunkel, et al., 1974"
 71932-99-5,Vertical value, C,9.42,PE,"Hex-4-yn-3-one, 2,2-dimethyl-","Carlier and Mouvier, 1979"
 36197-25-8,Vertical value, C,8.95,PE,"Bicyclo[2.2.1]hept-2-ene,7-methoxy-syn-","Brown, 1976"
 1728-25-2,Vertical value, C,9.18,PE,2-Cycloocten-1-one,"Hentrich, Gunkel, et al., 1974"
 71932-97-3,Vertical value, C,10,PE,4-Ethyl-2-hexynal,"Carlier and Mouvier, 1979"
 6522-54-9,Vertical value, C,8.16,PE,9-Thiabicyclo[4.2.1]nonane,"Muller, Schweig, et al., 1974"
 281-15-2,Vertical value, C,8.2,PE,9-Thiabicyclo[3.3.1]nonane,"Batich, Heilbronner, et al., 1976"
 1119-58-0,Vertical value, C,9.64,PE,3-Octyn-2-one,"Carlier and Mouvier, 1979"
 17190-87-3,Vertical value, C,8.68 ¡À 0.03,PE,"Bicyclo[2.2.1]hept-2-ene,5-methoxy-, exo-","Neijzen, Schmitz, et al., 1975"
 7076-81-5,, C,8.8 ¡À 0.1,EI,Tricyclo[3.2.1.0,"Brion, Farmer, et al., 1970"
 7076-80-4,, C,9.1 ¡À 0.1,EI,Tricyclo[3.2.1.0,"Brion, Farmer, et al., 1970"
 126126-48-5,Vertical value, C,8.44,PE,"Vinyl hexa-1,2-dien-3-yl ether","Eroshchenko, Sinegovskaya, et al., 1989"
 68211-36-9,Vertical value, C,9.21 ¡À 0.05,PE,Bicyclo[2.2.2]oct-2-en-1-ol,"Brown and Marcinko, 1978"
 20642-83-5,Vertical value, C,8.89,PE,9-Oxabicyclo[4.2.1]non-7-ene,"Schmidt, Schweig, et al., 1976"
 40164-27-0,Vertical value, C,8.6,PE,9-Oxabicyclo[3.3.1]non-1-ene,"Batich, Heilbronner, et al., 1976"
 7040-42-8,, C,8.58,CTS,"Furan,3-(1,1-dimethylethyl-","Aloisi, Santini, et al., 1975"
 32350-48-4,, C,9.3 ¡À 0.1,EI,Tricyclo[3.2.1.0,"Brion, Farmer, et al., 1970"
 17190-92-0,Vertical value, C,8.69 ¡À 0.03,PE,"Bicyclo[2.2.1]hept-2-ene,5-methoxy-endo-","Neijzen, Schmitz, et al., 1975"
 14919-01-8,LLK, C,8.854 ¡À 0.006,PI,"3-Octene, (E)-","Rang, Martinson, et al., 1974"
 14221-06-8,LBLHLM, C,6.57,PE,"Molybdenum, tetrakis[¦Ì-(acetato-O:O')]di-, (Mo-Mo)","Chisholm, Clark, et al., 1987"
 7642-15-1,LLK, C,8.836 ¡À 0.006,PI,"4-Octene, (Z)-","Rang, Martinson, et al., 1974"
 14850-22-7,LLK, C,8.859 ¡À 0.008,PI,"3-Octene, (Z)-","Rang, Martinson, et al., 1974"
 7145-20-2,LLK, C,8.186 ¡À 0.005,PE,"2-Hexene, 2,3-dimethyl-","Masclet, Grosjean, et al., 1973"
 41348-25-8,Vertical value, C,7.33,PE,"Palladium, bis[(1,2,3-¦Ç)-2-methyl-2-propenyl]-","Bohm, Gleiter, et al., 1980"
 82763-96-0, , C,7.9,PE,"Germole, 1,1,3,4-tetramethyl-","Guimon, Pfister-Guillouzo, et al., 1985"
 3559-74-8,Vertical value, C,8.3,PE,"2,4-Cyclopentadien-1-yltrimethylsilane","Bock and Kaim, 1980"
 629-05-0,, C,9.95 ¡À 0.02,PI,1-Octyne,"Rang and Martinson, 1978"
 2809-67-8,LLK, C,9.31 ¡À 0.02,PI,2-Octyne,"Rang and Martinson, 1978"
 33010-07-0,Vertical value, C,7.65,PE,"Platinum, bis(1,2,3-¦Ç)-2-methyl-2-propenyl)-","Bohm, Gleiter, et al., 1980"
 1271-07-4,Vertical value, C,7.9,PE,"Platinum, (¦Ç5-2,4-cyclopentadien-1-yl)trimethyl-","Yang, Bancroft, et al., 1990"
 12261-14-2,Vertical value, C,7.53,PE,"Nickel,bis(1,2,3-¦Ç)-2-methyl-2-propenyl-)-","Bohm, Gleiter, et al., 1980"
 70086-65-6,Vertical value, C,7.9,PE,"Benzene,1-(methylseleno)-4-(methylthio)-","Chmutova, Vtyurina, et al., 1979"
 2388-68-3,LLK, C,7.7,PE,"Benzene, 1,2-bis(methylthio)-","Traven', Redchenko, et al., 1981"
 62244-52-4,, C,9.09,EI,"Silane,(3-chlorophenyl)fluorodimethyl-","Gey and Dube, 1976"
 40200-66-6,, C,6.86 ¡À 0.03,PI,"1,4-Benzenediamine,2,5-dichloro-3,6-dimethyl-","Potapov, Kardash, et al., 1972"
 62244-51-3,, C,9.15,EI,"Silane,(4-chlorophenyl)fluorodimethyl-","Gey and Dube, 1976"
 698-69-1,LLK, C,7.2 ¡À 0.1,PE,"Benzenamine, 4-chloro-N,N-dimethyl-","Egdell, Green, et al., 1975"
 699-20-7,Vertical value; , C,7.93,PE,"Benzene, 1,4-bis(methylthio)-","Chmutova, Vtyurina, et al., 1979"
 2388-69-4,Vertical value; , C,8,PE,"Benzene, 1,3-bis(methylthio)-","Chmutova, Vtyurina, et al., 1979"
 12145-63-0,Vertical value, C,7.53,PE,"Nickel,bis((1,2,3-¦Ç","Batich, 1976"
 60981-61-5,Vertical value, C,8.28,PE,"Mercury, methyl (norborn-2-yl)-, exo-","Nugent, Wu, et al., 1976"
 622-38-8,LLK, C,7.88 ¡À 0.02,PI,"Benzene, (ethylthio)-","Trofimov, Mel'der, et al., 1975"
 766-92-7,LL, C,8.2,PE,Benzyl methyl sulfide,"Glass, Broeker, et al., 1989"
 623-13-2,Vertical value; , C,7.9 ¡À 0.05,PE,"Benzene, 1-methyl-4-(methylthio)-","Bernardi, Distefano, et al., 1975"
 4886-77-5,Vertical value; , C,8,PE,"Benzene, 1-methyl-3-(methylthio)-","Dewar, Ernstbrunner, et al., 1974"
 50669-04-0,Vertical value, C,8.26,PE,"9-Thiabicylo[4.2.1]nona-2,4-diene","Muller, Schweig, et al., 1974"
 60981-62-6,Vertical value, C,8.47,PE,"Mercury, methyl-(norborn-2-yl)-, endo-","Nugent, Wu, et al., 1976"
 931-88-4,LLK, C,8.8,PE,Cyclooctene,"Batich, Bischof, et al., 1973"
 82763-95-9, , C,7.8,PE,"Silole, 1,1,3,4-tetramethyl-","Guimon, Pfister-Guillouzo, et al., 1985"
 106-42-3,LLK, C,8.52 ¡À 0.01,EQ,p-Xylene,"Lias and Ausloos, 1978"
 100-41-4,LBLHLM, C,8.77,PE,Ethylbenzene,"Howell, Goncalves, et al., 1984"
 40400-26-8,Vertical value, C,7.95,PE,"Benzene,1,4-bis(methylseleno)-","Chmutova, Vtyurina, et al., 1979"
 20534-12-7, , C,8.47,PE,"1,4-Dibora-2,5-cyclohexadiene, 1,4-difluoro-2,3,5,6-tetramethyl-","Bock, Kaim, et al., 1980"
 586-77-6,, C,7.33,CTS,"Benzenamine, 4-bromo-N,N-dimethyl-","Farrell and Newton, 1965"
 62244-54-6,, C,9.11,EI,"Silane,(3-bromophenyl)fluorodimethyl-","Gey and Dube, 1976"
 62244-53-5,, C,9.01,EI,"Silane,(4-bromophenyl)fluorodimethyl-","Gey and Dube, 1976"
 62244-57-9,, C,9.77,EI,"Silane,fluorodimethyl(4-nitrophenyl)-","Gey and Dube, 1976"
 599-70-2,LLK, C,9.4,PE,"Benzene, (ethylsulfonyl)-","Mohraz, Jian-qi, et al., 1981"
 53968-86-8,Vertical value, C,7.88,PE,"1,3,5,2,4,6-Triazatriphosphorine,2-[4-(dimethylamino)phenyl]-2,4,4,6,6-pentafluoro-2,2,4,4,6,6-hexahydro-","Allen and Green, 1980"
 39232-03-6,, C,7.8,EI,1-(4-Aminophenyl)-2-bromoethane,"Grutzmacher, 1970"
 403-46-3,RDSH, C,7.5,CTS,"p-Fluoro-N,N-dimethylaniline","Farrell and Newton, 1965"
 151-10-0,RDSH, C,8.2 ¡À 0.1,EI,"Benzene, 1,3-dimethoxy-","Brown, 1970"
 150-78-7,LBLHLM, C,7.78 ¡À 0.03,PI,"Benzene, 1,4-dimethoxy-","Ponomarev, Arapov, et al., 1986"
 91-16-7,LLK, C,7.8,PE,"Benzene, 1,2-dimethoxy-","Domelsmith and Houk, 1978"
 621-34-1,, C,8.49 ¡À 0.15,EI,"Phenol, 3-ethoxy-","McLafferty and Schiff, 1969"
 622-62-8,, C,8.25 ¡À 0.15,EI,"Phenol, 4-ethoxy-","McLafferty and Schiff, 1969"
 51716-63-3,LL, C,9.4,PE,"2,5(1H,3H)-Pentalenedione, tetrahydro-, cis-","Albert, Elsasser, et al., 1991"
 15940-88-2,LLK, C,8.8,PE,Dicyclopropylethanedione,"Kelder, Cerfontain, et al., 1974"
 74896-14-3,LLK, C,8.7,PE,"Bicyclo[3.2.1]octane-2,4-dione","Gleiter, Hofmann, et al., 1980"
 68882-69-9,LBLHLM, C,9.1,PE,"Bicyclo[4.2.0]octane-2,5-dione","Gleiter, Jahne, et al., 1985"
 29978-55-0,LLK, C,9.1,PE,"Bicyclo[3.1.0]hexane-2,4-dione,1,5-dimethyl-","Beck, Hofmann, et al., 1981"
 2388-73-0,Vertical value; , C,8.05,PE,"Benzene, 1-methoxy-2-(methylthio)-","Chmutova, Vtyurina, et al., 1979"
 1879-16-9,Vertical value; , C,7.8,PE,"Benzene, 1-methoxy-4-(methylthio)-","Chmutova, Vtyurina, et al., 1979"
 92688-77-2,LBLHLM, C,9.5,PE,"4,7-Epoxybenzo[c]thiophene, 1,3,3a,4,7,7a-hexahydro-2,2-dioxide, (3a¦Á,4¦Â,7¦Â,7a¦Á)-","Aitken, Gosney, et al., 1984"
 4170-80-3,Vertical value; , C,8.75,PE,Ethylphenylsulfoxide,"Mohraz, Jian-qi, et al., 1981"
 934-72-5,Vertical value; , C,8.7,PE,Methyl 4-methylphenylsulfoxide,"Mohraz, Jian-qi, et al., 1981"
 2726-42-3,Vertical value, C,7.93,PE,"Benzene,1-methoxy-3-(methylseleno)-","Chmutova, Vtyurina, et al., 1979"
 1657-75-6,Vertical value, C,7.86,PE,"Benzene,1-methoxy-2-(methylseleno)-","Chmutova, Vtyurina, et al., 1979"
 1694-07-1,Vertical value, C,8.05,PE,"Benzene,1-methoxy-4-(methylseleno)-","Chmutova, Vtyurina, et al., 1979"
 576-26-1, , C,8.05 ¡À 0.02,PE,"Phenol, 2,6-dimethyl-","Maier and Turner, 1973"
 105-67-9, , C,8,PE,"Phenol, 2,4-dimethyl-","Kobayashi and Nagakura, 1974"
 123-07-9,LBLHLM, C,7.84,EI,"Phenol, 4-ethyl-","Russell, Freiser, et al., 1983"
 526-75-0,, C,8.26,EI,"Phenol, 2,3-dimethyl-","Russell, Freiser, et al., 1983"
 104-93-8,LBLHLM, C,7.90 ¡À 0.03,PI,"Benzene, 1-methoxy-4-methyl-","Ponomarev, Arapov, et al., 1986"
 95-65-8,, C,8.09,EI,"Phenol, 3,4-dimethyl-","Russell, Freiser, et al., 1983"
 103-73-1,RDSH, C,8.6,EI,"Benzene, ethoxy-","Williams, Cooks, et al., 1968"
 100-84-5,LLK, C,8,PE,"Benzene, 1-methoxy-3-methyl-","Kobayashi and Nagakura, 1974"
 578-58-5,LLK, C,7.9,PE,"Benzene, 1-methoxy-2-methyl-","Behan, Dean, et al., 1976"
 538-86-3,LLK, C,8.76,EI,"Benzene, (methoxymethyl)-","Hoffman and Bursey, 1971"
 7076-83-7,, C,9.2 ¡À 0.1,EI,Tricyclo[3.2.1.0,"Brion, Farmer, et al., 1970"
 74437-38-0,Vertical value; , C,8.05,PE,2-Methoxynorbornadiene,"Houk, Rondan, et al., 1983"
 19740-75-1,Vertical value, C,8.55,PE,"9-Oxabicyclo[4.2.1]nona-2,4-diene","Schmidt, Schweig, et al., 1976"
 1714-38-1,LLK, C,7.23,EI,"Ether, 2,4,6-cycloheptatrien-1-yl methyl","Hoffman and Bursey, 1971"
 42104-03-0,LBLHLM, C,8.23,EI,"3,5-Cycloheptadienone, 2-methyl-","Russell, Freiser, et al., 1983"
 2220-40-8, , C,8.6,PE,Bicyclo[2.2.2]oct-5-en-2-one,"Carnovale, Gan, et al., 1981"
 53011-95-3,Vertical value, C,8.79 ¡À 0.03,PE,"7-Oxabicyclo[2.2.1]heptane,2,3-bis(methylene)-","Pfeffer, Klessinger, et al., 1975"
 17609-31-3,Vertical value, C,8.42 ¡À 0.03,PE,"2,4,6-Octatrienal","Klessinger and Gunkel, 1978"
 14224-86-3,, C,8.8 ¡À 0.1,EI,Tricyclo[3.2.1.0,"Brion, Farmer, et al., 1970"
 17774-38-8,LLK, C,7.6,PE,Ethylselenobenzene,"Baker, Armen, et al., 1981"
 1528-88-7,LLK, C,7.5,PE,2-Methyl methylselenobenzene,"Baker, Armen, et al., 1981"
 13514-03-9,, C,8.1 ¡À 0.15,EI,"8-Azabicyclo[3.2.1]octane, 3-chloro-8-methyl-, (3-endo)-","Grutzmacher and Lange, 1978"
 2292-12-8,, C,8.3 ¡À 0.15,EI,"8-Azabicyclo[3.2.1]octane,3-chloro-8-methyl-exo-","Grutzmacher and Lange, 1978"
 73322-95-9,Vertical value; , C,8.55,PE,"9-Azabicyclo[3.3.1]nonane, 9-chloro-","Nelsen and Gannett, 1982"
 95-47-6,LLK, C,8.56 ¡À 0.01,EQ,o-Xylene,"Lias and Ausloos, 1978"
 126-22-7,Vertical value, C,10.3,PE,Butonate,"Betteridge, Thompson, et al., 1972"
 108-38-3,LBLHLM, C,8.56,PE,"Benzene, 1,3-dimethyl-","Howell, Goncalves, et al., 1984"
 100-40-3,LBLHLM, C,8.8 ¡À 0.1,EI,"Cyclohexene, 4-ethenyl-","Groenwold and Gross, 1984"
 111-78-4,LLK, C,8.9,PE,"1,5-Cyclooctadiene","Batich, Bischof, et al., 1973"
 37689-19-3,LLK, C,8.60 ¡À 0.01,PE,1-(2-Propenyl)cyclopentene,"Rang, Paldoia, et al., 1974"
 931-64-6,RDSH, C,8.92,PE,Bicyclo[2.2.2]oct-2-ene,"Bodor, Dewar, et al., 1970"
 10499-33-9,LLK, C,9.19 ¡À 0.03,PI,¦Á-Chlorocyclooctanone oxime,"Golubitskii, Kulikov, et al., 1979"
 14564-97-7,LLK, C,8.89 ¡À 0.02,PE,3-(2-Propenyl)cyclopentene,"Rang, Paldoia, et al., 1974"
 3806-59-5,Vertical value, C,8.68,PE,"1,3-Cyclooctadiene, (Z,Z)-","Bischof and Heilbronner, 1970"
 1700-10-3,LLK, C,8.4,PE,"1,3-Cyclooctadiene","Batich, Bischof, et al., 1973"
 694-92-8,LL, C,8.1,PE,"Bicyclo[2.2.1]hept-2-ene, 2-methyl-","Wen, Hitchcock, et al., 1990"
 31463-35-1,Vertical value; , C,9.4,PE,7-Methylenebicyclo[2.2.1]-heptane,"Hoffmann, Schuttler, et al., 1972"
 497-35-8,Vertical value; , C,9.04,PE,2-Methylenebicyclo[2.2.1]-heptane,"Asmus and Klessinger, 1974"
 6553-48-6,Vertical value; , C,9.2,PE,"Cyclobutane, 1,2-diethenyl-, trans-","Bischof, Gleiter, et al., 1981"
 692-70-6,LLK, C,8.838 ¡À 0.005,PE,"3-Hexene, 2,5-dimethyl-, (E)-","Masclet, Grosjean, et al., 1973"
 565-77-5,LLK, C,8.165 ¡À 0.005,PE,"2-Pentene, 2,3,4-trimethyl-","Masclet, Grosjean, et al., 1973"
 583-57-3,, C,9.45 ¡À 0.05,EI,"Cyclohexane, 1,2-dimethyl- (cis/trans)","Holmes and Lossing, 1991"
 19550-88-0,LLK, C,8.156 ¡À 0.003,PE,"(E)-2,3-Dimethyl-3-hexene","Masclet, Grosjean, et al., 1973"
 19550-87-9,LLK, C,8.172 ¡À 0.003,PE,"3-Hexene, 3,4-dimethyl-, (Z)-","Masclet, Grosjean, et al., 1973"
 1942-45-6,LLK, C,9.20 ¡À 0.02,PI,4-Octyne,"Rang and Martinson, 1978"
 34067-75-9,LLK, C,8.84 ¡À 0.02,PE,"Cyclopentene, 3-propyl-","Rang, Paldoia, et al., 1974"
 764-13-6,LLK, C,7.67,PE,"2,4-Hexadiene, 2,5-dimethyl-","Masclet, Mouvier, et al., 1981"
 1003-64-1,RDSH, C,8.41,PE,"Cyclohexane, ethylidene-","Demeo and Yencha, 1970"
 1453-24-3,LLK, C,8.48 ¡À 0.01,PE,"Cyclohexene, 1-ethyl-","Rang, Paldoia, et al., 1974"
 695-12-5,, C,9.51,PE,"Cyclohexane, ethenyl-","Bruckmann and Klessinger, 1974"
 15232-76-5,LLK, C,9.22 ¡À 0.02,PI,3-Octyne,"Rang and Martinson, 1978"
 280-33-1,LLK, C,9.43,S,Bicyclo[2.2.2]octane,"Raymonda, 1972"
 3742-42-5,LLK, C,8.88 ¡À 0.01,PE,4-Ethylcyclohexene,"Rang, Paldoia, et al., 1974"
 4276-45-3,LLK, C,8.81 ¡À 0.02,PE,3-Isopropylcyclopentene,"Rang, Paldoia, et al., 1974"
 3074-61-1,LLK, C,8.48 ¡À 0.01,PE,1-Propylcyclopentene,"Rang, Paldoia, et al., 1974"
 2808-71-1,LLK, C,8.83 ¡À 0.01,PE,"Cyclohexene, 3-ethyl-","Rang, Paldoia, et al., 1974"
 13643-08-8,Vertical value; , C,8.13,PE,"2,4-Octadiene","Masclet, Mouvier, et al., 1981"
 3710-30-3,Vertical value, C,9.52 ¡À 0.02,PE,"1,7-Octadiene","Bunzli, Burak, et al., 1973"
 931-87-3,, C,8.82,PE,"Cyclooctene, (Z)-","Bischof and Heilbronner, 1970"
 2175-91-9,Vertical value; , C,8.03,PE,"1,3-Cyclopentadiene, 5-(1-methylethylidene)-","Houk, George, et al., 1974"
 3725-31-3,LLK, C,7.79 ¡À 0.02,PE,"(E,E)-1,3,5,7-Octatetraene","Jones and Maier, 1979"
 1871-52-9,LLK, C,7.9,PE,"1,3,5-Cyclooctatriene","Batich, Bischof, et al., 1973"
 694-91-7,Vertical value; , C,9.01,PE,"Bicyclo[2.2.1]hept-2-ene, 5-methylene-","Asmus and Klessinger, 1974"
 3725-05-1,RDSH, C,9.0 ¡À 0.1,EI,"1,5-Hexadien-3-yne, 2,5-dimethyl-","Meyer, Haynes, et al., 1965"
 765-72-0,LLK, C,8.4,PE,"Dicyclopropa[cd,gh]pentalene,octahydro-","Martin, Heller, et al., 1974"
 16387-70-5, , C,8.55,PE,"3,5-Octadiyne","Maier, Misev, et al., 1981"
 3635-94-7,Vertical value, C,9.05,PE,Tricyclo[3.2.1.0,"Bischof, Heilbronner, et al., 1971"
 3725-30-2,LLK, C,8.5,PE,"1,3,6-Cyclooctatriene","Batich, Bischof, et al., 1973"
 4281-04-3,RDSH, C,8.4 ¡À 0.1,EI,7-Methylcycloheptatriene,"Meyer, Haynes, et al., 1965"
 500-23-2,Vertical value; , C,8.87,PE,"Bicyclo[2.2.2]octa-2,5-diene","Bischof, Hashmall, et al., 1969"
 3635-95-8,Vertical value, C,8.9,PE,Tricyclo[3.2.1.0,"Bischof, Heilbronner, et al., 1971"
 4096-95-1,RDSH, C,8.44 ¡À 0.01,PI,"Bicyclo[3.2.1]octa-2,6-diene","Demeo and El-Sayed, 1970"
 931-49-7,, C,8.61 ¡À 0.01,PE,"Cyclohexene,1-ethynyl-","Carlier, Mouvier, et al., 1979"
 3725-28-8,LLK, C,7.6,PE,"Bicyclo[4.2.0]octa-2,4-diene","Gleiter, Gubernator, et al., 1981"
 67487-86-9,, C,8.0 ¡À 0.1,EI,"4-Methylspiro[2.4]hepta-4,6-diene","Meyer, Haynes, et al., 1965"
 4308-80-9,, C,8.4 ¡À 0.1,EI,"1-Methylspiro[2.4]hepta-4,6-diene","Meyer, Haynes, et al., 1965"
 4087-51-8,, C,8.1 ¡À 0.1,EI,"5-Methylspiro[2.4]hepta-4,6-diene","Meyer, Haynes, et al., 1965"
 13027-75-3,Vertical value; , C,9.23,PE,Tricyclo[4.2.0.0,"Gleiter, Heilbronner, et al., 1973"
 28636-10-4,Vertical value; , C,9.18,PE,Tricyclo[4.2.0.0,"Gleiter, Heilbronner, et al., 1973"
 925-52-0,LBLHLM, C,8.4 ¡À 0.1,EI,"1,3,6-Heptatriene, 5-methyl-","Groenwold and Gross, 1984"
 2819-48-9,LLK, C,8.9,PE,"Cyclohexane, 1,2-bis(methylene)-","Scharf, Plum, et al., 1979"
 16177-46-1,Vertical value; , C,9.22,PE,"cis-1,2-Divinylcyclobutane","Bischof, Gleiter, et al., 1981"
 250-21-5, , C,9.4,PE,Tricyclo[3.3.0.0,"Bischof, Gleiter, et al., 1974"
 822-93-5,LLK, C,8.87,PE,"Cyclopropane, 1,1'-ethenylidenebis-","Dewar, Fonken, et al., 1976"
 5259-71-2,LLK, C,8.2,PE,"1,5-Cyclooctadiene, (E,Z)-","Martin, Kunze, et al., 1979"
 1073-07-0,LLK, C,8.5,PE,"1,4-Cyclooctadiene","Batich, Bischof, et al., 1973"
 10557-44-5,LLK, C,8.846 ¡À 0.005,PE,"(Z)-2,5-Dimethylhex-3-ene","Masclet, Grosjean, et al., 1973"
 4126-78-7,, C,9.70 ¡À 0.05,EI,"Cycloheptane, methyl-","Holmes and Lossing, 1991"
 19780-67-7,LLK, C,8.170 ¡À 0.003,PE,"2-Pentene, 3-ethyl-2-methyl-","Masclet, Grosjean, et al., 1973"