CAS,Comment,Formula,IE,Method,Name,Refer
 110-51-0,Vertical value, C,9.72,PE,"Boron, trihydro(pyridine)-, (T-4)-","Weiner and Lattman, 1975"
 6038-09-1,LLK, C,9.59,PE,"2-Butenal,2-methyl-(Z)-","Masclet and Mouvier, 1978"
 1629-58-9,LLK, C,9.5,PE,1-Penten-3-one,"Masclet and Mouvier, 1978"
 625-33-2,LLK, C,9.39,PE,3-Penten-2-one,"Masclet and Mouvier, 1978"
 120-92-3,LLK, C,9.28 ¡À 0.01,PE,Cyclopentanone,"Cocksey, Eland, et al., 1971"
 814-78-8,LLK, C,9.5,PE,"3-Buten-2-one, 3-methyl-","Masclet and Mouvier, 1978"
 110-87-2,LLK, C,8.37 ¡À 0.02,PE,"2H-Pyran, 3,4-dihydro-","Bloch, Brogli, et al., 1978"
 765-43-5,Vertical value; , C,9.46,PE,"Ethanone, 1-cyclopropyl-","Al-Khafaji and Shanshal, 1977"
 764-39-6,LLK, C,9.7,PE,2-Pentenal,"Masclet and Mouvier, 1978"
 115-19-5,Vertical value, C,10.18,PE,"3-Butyn-2-ol, 2-methyl-","Andreocci, Bitchev, et al., 1979"
 497-03-0,LLK, C,9.6,PE,"2-Butenal, 2-methyl-, (E)-","Masclet and Mouvier, 1978"
 10034-09-0,LLK, C,8.03,PE,"(E)-1-Methoxy-1,3-butadiene","Sustmann and Schubert, 1972"
 3212-60-0,Vertical value, C,9.60 ¡À 0.05,PE,1-Cyclopenten-3-ol,"McAlduff, Caramella, et al., 1978"
 2117-11-5,Vertical value, C,10.24,PE,4-Pentyn-2-ol,"Andreocci, Bitchev, et al., 1979"
 3588-30-5,, C,8.43,PE,"1,3-Butadiene, 2-methoxy-","Sustmann and Schubert, 1972"
 598-25-4, , C,8.9,EI,"1,2-Butadiene, 3-methyl-","Harris, McKinnon, et al., 1979"
 591-96-8,LLK, C,9.13 ¡À 0.02,PE,"2,3-Pentadiene","Bieri, Burger, et al., 1977"
 627-19-0,LLK, C,10.05,EI,1-Pentyne,"Holmes, Fingas, et al., 1981"
 693-86-7,LLK, C,8.7,PE,"Cyclopropane,ethenyl-","Harada, Seki, et al., 1973"
 1120-56-5,LLK, C,9.19 ¡À 0.02,PE,"Cyclobutane, methylene-","Bieri, Burger, et al., 1977"
 81200-77-3,LBLHLM, C,9.1,PE,"1-Silacyclohexa-2,5-diene","Bock, Rosmus, et al., 1984"
 33618-25-6,Vertical value, C,8.7,PE,"Silane,2,4-cyclopentadien-1-yl-","Cradock, Ebsworth, et al., 1975"
 19284-67-4,, C,8.14 ¡À 0.01,PI,"Propane, 2-(2,2-dichloroethenyl)thio]-","Trofimov, Mel'der, et al., 1975"
 185-94-4, , C,8.7 ¡À 0.1,PE,Bicyclo[2.1.0]pentane,"Bieri, Burger, et al., 1977"
 311-75-1,RDSH, C,9.65,EI,Bicyclo[1.1.1]pentane,"Wiberg and Connor, 1966"
 627-21-4,LLK, C,9.44 ¡À 0.02,PE,2-Pentyne,"Bieri, Burger, et al., 1977"
 591-95-7,LLK, C,9.25 ¡À 0.02,PE,"1,2-Pentadiene","Bieri, Burger, et al., 1977"
 3907-06-0,LLK, C,8.8,PE,"Cyclopropene, 3,3-dimethyl-","Plemenkov, Villem, et al., 1981"
 157-40-4,LBLHLM, C,9.26,PE,Spiropentane,"Gleiter, Krennrich, et al., 1986"
 58629-01-9,Vertical value, C,9.68,PE,"2-Oxazolidinone, 3-chloro-4,4-dimethyl-","Gerson, Worley, et al., 1978"
 38194-30-8,, C,9.36 ¡À 0.05,PE,"Manganese, pentacarbonyl(trichlorosilyl)-","Higginson, Lloyd, et al., 1975"
 19212-18-1,RDSH, C,8.25,EI,"Molybdenum, pentacarbonyl(phosphorus trichloride)-","Pignataro, Foffani, et al., 1968"
 18461-41-1, , C,8.26,EI,"Chromium, pentacarbonyl(phosphorus trichloride)-","Muller, Fenderl, et al., 1971"
 21223-85-8,RDSH, C,8.50 ¡À 0.05,EI,"Tungsten, pentacarbonyl(phosphorus trichloride)-","Distefano, Innorta, et al., 1968"
 504-60-9,, C,8.6,EI,"1,3-Pentadiene","Harris, McKinnon, et al., 1979"
 3114-46-3,LBLHLM, C,10.6,PIPECO,Bromocyanoacetylene,"Kuhn, Maier, et al., 1984"
 13569-38-5,, C,9.62,PI,"1,2-Dicarbadodecaborane(12), 1-isopropyl-","Orlov, Pustobaev, et al., 1989"
 23940-16-1,, C,9.51,PI,"1,2-Dicarbadodecaborane(12), 1-propyl-","Orlov, Pustobaev, et al., 1989"
 3248-60-0,, C,10.5 ¡À 0.1,EI,"Ethyl,1,1,2,2,2-tetrafluoro-1-(trifluoromethyl)","Fisher, Homer, et al., 1965"
 10419-75-7,, C,11.75 ¡À 0.05,EI,Propanenitrile-25,"Franklin, Wada, et al., 1966"
 754-34-7,, C,10.36 ¡À 0.01,PI,Perfluoropropyl iodide,"Watanabe, Nakayama, et al., 1962"
 3170-79-4,RDSH, C,10.1 ¡À 0.1,EI,"Propyl,heptafluoro","Fisher, Homer, et al., 1965"
 38683-48-6,LBLHLM, C,8.44 ¡À 0.05,EI,"Allyl, pentafluoro-, radical","Kagramanov, Ujszaszy, et al., 1983"
 32038-83-8,LLK, C,11.51 ¡À 0.02,PE,"2-Propynenitrile, 3-fluoro-","Bieri, Heilbronner, et al., 1979"
 432-05-3, , C,~10.1,PE,"Stibine, tris(trifluoromethyl)-","Elbel, Dieck, et al., 1982"
 432-03-1,LBLHLM, C,11.7,PE,Tris(trifluoromethyl)amine,"Elbel, Dieck, et al., 1982"
 432-04-2,LBLHLM, C,11.1,PE,"Phosphine, tris(trifluoromethyl)-","Elbel, Dieck, et al., 1982"
 461-68-7, , C,10.88,PE,Perfluoroallene,"Thomas and Thompson, 1974"
 116-15-4,LLK, C,10.60 ¡À 0.03,PI,"Propene, hexafluoro-","Berman, Bomse, et al., 1981"
 931-91-9,LLK, C,11.18 ¡À 0.03,PI,"Cyclopropane, hexafluoro-","Berman, Bomse, et al., 1981"
 461-08-5,Vertical value, C,9.25,PE,"Carbonotrithioic acid, bis(trifluoromethyl) ester","Bock, Wittel, et al., 1974"
 684-16-2,LLK, C,11.44,PE,"2-Propanone, 1,1,1,3,3,3-hexafluoro-","Brundle, Robin, et al., 1972"
 16454-87-8, , C,8.47,EI,"Iron, tricarbonylbis(phosphorus trifluoride)-","Muller, Fenderl, et al., 1971"
 17573-93-2,Vertical value, C,8.72 ¡À 0.02,PE,"Pyridine, pentachloro-, 1-oxide","Maier and Muller, 1974"
 59049-78-4,Vertical value, C,8.31,PE,"Mercury, (1,1-dimethylethyl)methyl-","Nugent, Wu, et al., 1976"
 59049-79-5,Vertical value, C,8.18,PE,"Mercury, ethyl(1-methylethyl)-","Fehlner, Ulman, et al., 1976"
 13483-31-3,, C,7.43,PE,"2-Propanone, dimethylhydrazone","Zverev, Vovna, et al., 1973"
 38704-89-1,LBLHLM, C,6.66 ¡À 0.05,EQ,"Pyrazolidine, 1,2-dimethyl-","Rumack, 1986"
 2213-43-6,Vertical value, C,8.631,PE,1-Piperidinamine,"Nelsen and Buschek, 1974"
 632-22-4,RDSH, C,8.74 ¡À 0.05,EI,"Urea, tetramethyl-","Baldwin, Kirkien-Konasiewicz, et al., 1966"
 105-55-5,, C,7.98 ¡À 0.05,EI,"Thiourea, N,N'-diethyl-","Baldwin, Maccoll, et al., Ind. 1966"
 2782-91-4,LLK, C,7.82 ¡À 0.03,PE,"Thiourea, tetramethyl-","Guimon, Pfister-Guillouzo, et al., 1974"
 66175-24-4,Vertical value, C,8.18,PE,"2H-1,3,4-Thiadiazine,tetrahydro-3,4-dimethyl-","Katritzky, Baker, et al., 1980"
 50695-43-7,Vertical value; , C,8.83,PE,"Diaziridine, 1,2,3,3-tetramethyl-","Klasinc, Mannschreck, et al., 1994"
 67092-88-0,Vertical value; , C,8.61,PE,"1-Azetidinamine, N,N-dimethyl-","Nelsen, 1984"
 2176-62-7,Vertical value, C,9.44,PE,"Pyridine, pentachloro-","Maier and Muller, 1974"
 56444-81-6,, C,8.33 ¡À 0.02,PI,"Ethane, 1-(ethylthio)-2-methoxy-","Trofimov, Mel'der, et al., 1975"
 32707-18-9,, C,8.7 ¡À 0.1,EI,"1,3,2-Diazaphosphetidin-4-one,2-fluoro-2,2-dihydro-1,2,2,3-tetramethyl-","Baldwin, Loudon, et al., 1977"
 16722-09-1,Vertical value, C,9.67 ¡À 0.05,PE,"Oxirane, 2-trimethylsilyl-","Block, Yencha, et al., 1988"
 628-32-0,, C,9.5 ¡À 0.1,EI,"Propane, 1-ethoxy-","Holmes, Fingas, et al., 1981"
 71-41-0,LLK, C,10,PE,1-Pentanol,"Ashmore and Burgess, 1977"
 137-32-6,LLK, C,9.86,EI,"1-Butanol, 2-methyl-","Holmes, Fingas, et al., 1981"
 1634-04-4,LL, C,9.24,EI,"Propane, 2-methoxy-2-methyl-","Bissonnette, George, et al., 1990"
 598-75-4,LL, C,9.75 ¡À 0.05,EI,"2-Butanol, 3-methyl-","George and Holmes, 1990"
 75-84-3,LL, C,9.72 ¡À 0.05,EI,"1-Propanol, 2,2-dimethyl-","Bissonnette, George, et al., 1990"
 75-85-4,LLK, C,9.8,PE,Amylene hydrate,"Peel and Willett, 1975"
 584-02-1,LBLHLM, C,9.78 ¡À 0.07,EI,3-Pentanol,"Bowen and Maccoll, 1984"
 6032-29-7,LBLHLM, C,9.78 ¡À 0.07,EI,2-Pentanol,"Bowen and Maccoll, 1984"
 462-95-3,, C,9.70 ¡À 0.05,PI,"Methane, diethoxy-","Watanabe, Nakayama, et al., 1962"
 33446-84-3,Vertical value, C,10.15,PE,"1,1-dimethoxysilacyclobutane","Cundy, Lappert, et al., 1973"
 13411-48-8, , C,8.64,PE,Trimethylsilyl acetate,"Brown, 1975"
 14018-58-7,LLK, C,9.35 ¡À 0.03,PE,"Hydroperoxide, 1-methylbutyl","Ashmore and Burgess, 1977"
 17081-21-9,LBLHLM, C,9.3,PE,"Propane, 1,3-dimethoxy-","Biermann and Morton, 1983"
 74-80-6,LLK, C,9.5 ¡À 0.3,PE,"Hydroperoxide, pentyl","Ashmore and Burgess, 1977"
 59643-44-6,Vertical value, C,8.75,PE,"Mercury, methyl(2-methylpropyl)-","Nugent, Wu, et al., 1976"
 6156-25-8,Vertical value, C,8.29,PE,"Methane, tetrakis(methylthio)-","Kobayashi, Gleiter, et al., 1977"
 1445-45-0,LBLHLM, C,9.65,EI,"Ethane, 1,1,1-trimethoxy-","Holmes and Lossing, 1982"
 625-54-7,LBLHLM, C,9.38 ¡À 0.07,EI,"Propane, 2-ethoxy-","Bowen and Maccoll, 1984"
 6795-87-5,, C,9.21 ¡À 0.07,EI,"Butane, 2-methoxy-","Bowen and Maccoll, 1984"
 628-28-4,LLK, C,9.54,EI,"Butane, 1-methoxy-","Holmes, Fingas, et al., 1981"
 17454-25-0,LLK, C,7.8,PE,"1,3,2-Dioxaphosphorinane, 2-(dimethylamino)-","Zverev, Villem, et al., 1981"
 114693-68-4,Vertical value, C,8.44 ¡À 0.05,PE,"Thiirane, 2-(trimethylsilyl)-","Block, Yencha, et al., 1988"
 61235-66-3,Vertical value, C,8.15,PE,"1,3,2-Dithiastannolane,2,2,4-trimethyl-","Delmas and Maire, 1978"
 4110-50-3,LLK, C,8.37,CTS,"Sulfide, ethyl propyl","Aloisi, Santini, et al., 1974"
 35166-82-6,, C,8.4 ¡À 0.8,EI,tert-Butyl Methyl disulfide,"Hawari, Griller, et al., 1986"
 4396-19-4,LLK, C,8.22 ¡À 0.02,PI,"Ethane, 1,1'-[methylenebis(thio)]bis-","Trofimov, Mel'der, et al., 1975"
 6163-64-0,, C,8.38 ¡À 0.05,PE,"Propane, 2-methyl-2-(methylthio)-","Distefano, Ricci, et al., 1974"
 5145-99-3,, C,8.35 ¡À 0.01,PI,"Propane, 2-(ethylthio)-","Trofimov, Mel'der, et al., 1975"
 463-82-1,LLK, C,10.21 ¡À 0.04,PE,Neopentane,"Jonas, Schweitzer, et al., 1973"
 78-78-4,T = 0K; , C,10.21,PI,"Butane, 2-methyl-","Traeger, Hudson, et al., 1996"
 754-06-3,Vertical value; , C,9.7,PE,Trimethyl vinyl tin,"Hosomi and Traylor, 1975"
 53520-45-9,Vertical value, C,8.5,PE,"Germane, acetyltrimethyl-","Ramsey, Brock, et al., 1974"
 2295-12-7,LBLHLM, C,8.83 ¡À 0.07,PE,"1,1-Dimethyl-1-silacyclobutane","Dyke, Josland, et al., 1982"
 754-05-2,LLK, C,9.2,EI,"Silane, ethenyltrimethyl-","Smolinsky and Vasile, 1973"
 109-66-0,T = 0K; , C,10.37,PI,Pentane,"Traeger, Hudson, et al., 1996"
 12327-32-1,, C,9.2 ¡À 0.3,EI,Disilicon tricarbide,"Drowart, DeMaria, et al., 1958"
 24442-69-1,LBLHLM, C,10.1,EI,"Penta-1,4-diyne","Holmes and Lossing, 1986"
 13177-38-3,Vertical value, C,9.49,PE,"2,4-Cyclopentadiene-1-one","Koenig, Smith, et al., 1977"
 1003-41-4,Vertical value, C,8.97 ¡À 0.05,PE,4H-Thiopyran-4-one,"Colonna, Distefano, et al., 1980"
 1120-93-0,Vertical value, C,8.10 ¡À 0.05,PE,4H-Pyran-4-thione,"Colonna, Distefano, et al., 1980"
 98-03-3, , C,9.55 ¡À 0.05,EI,2-Thiophenecarboxaldehyde,"Linda, Marino, et al., 1971"
 24843-39-8,, C,8.9,PE,2-Pyridinylnitrene,"Guimon, Khayar, et al., 1982"
 4513-94-4, , C,8.7,PE,Pyrrole-2-carbonitrile,"Guimon, Khayar, et al., 1982"
 1192-27-4,LLK, C,8.09 ¡À 0.01,PE,"5-Diazo-1,3-cyclopentadiene","Aaron, Connor, et al., 1974"
 14248-50-1,Vertical value, C,8.44,PE,"Pyridine,4-bromo-,1-oxide","Weiner and Lattman, 1974"
 1121-76-2,Vertical value, C,8.42 ¡À 0.02,PE,4-chloropyridine N-oxide,"Maier and Muller, 1974"
 1120-87-2,LLK, C,10. ¡À 0.1,EI,4-Bromopyridine,"Stefanovic and Grutzmacher, 1974"
 626-55-1,LLK, C,9.8 ¡À 0.1,EI,"Pyridine, 3-bromo-","Stefanovic and Grutzmacher, 1974"
 15009-91-3,, C,10.1 ¡À 0.1,EI,"Pyridine, 2-nitro-","Stefanovic and Grutzmacher, 1974"
 2530-26-9,LLK, C,10.3 ¡À 0.1,EI,3-Nitropyridine,"Stefanovic and Grutzmacher, 1974"
 1122-61-8,LLK, C,10.4,PE,4-Nitropyridine,"Weiner and Lattman, 1975"
 1124-82-9,Vertical value; , C,9.03 ¡À 0.02,PE,"Pyridine-1-oxide, 4-nitro-","Maier and Muller, 1974"
 35273-64-4,, C,8.9 ¡À 0.1,EI,2-Tellurophenecarboxaldehyde,"Distefano, Pignataro, et al., 1973"
 83809-88-5,, C,9.45 ¡À 0.03,PI,"1,2,4-Triazolo[5,1-c][1,2,4]triazine, 4,7-dihydro-6-nitro-7-oxo-2-methyl-","Rusinov, Ulomskii, et al., 1992"
 25109-26-6,LBLHLM, C,9.091,PE,2-Selenophenecarboxaldehyde,"Reineck, Nohre, et al., 1983"
 109-04-6,LLK, C,9.7 ¡À 0.1,EI,"Pyridine, 2-bromo-","Stefanovic and Grutzmacher, 1974"
 123606-06-4,, C,8.80 ¡À 0.02,PI,"1,2,4-Triazolo[5,1-c][1,2,4]triazine, 4,7-dihydro-6-nitro-7-oxo-2-methylthio-","Rusinov, Ulomskii, et al., 1992"
 626-60-8,LLK, C,9.1,PE,"Pyridine, 3-chloro-","Modelli and Distefano, 1981"
 109-09-1,LLK, C,9,PE,"Pyridine, 2-chloro-","Modelli and Distefano, 1981"
 626-61-9,LLK, C,9.5,PE,4-Chloropyridine,"Modelli and Distefano, 1981"
 2170-03-8,LLK, C,10.5,PE,"2,5-Furandione, dihydro-3-methylene-","Kimura, Katsumata, et al., 1981"
 4911-55-1,LLK, C,9.50 ¡À 0.02,PE,"1,3-Pentadiyne","Maier, 1981"
 616-02-4,LLK, C,10.7,PE,"2,5-Furandione, 3-methyl-","Kimura, Katsumata, et al., 1981"
 88-14-2,LL, C,9.17,PE,2-Furancarboxylic acid,"Klapstein, MacPherson, et al., 1990"
 62458-20-2,, C,9.3,PE,"1,3-Dioxolan-2-one, 4,5-bis(methylene)-","Scharf, Plum, et al., 1979"
 1120-94-1,Vertical value, C,7.96 ¡À 0.05,PE,4H-Thiopyran-4-thione,"Colonna, Distefano, et al., 1980"
 77825-99-1,LLK, C,8.4,PE,"2,4-Cyclopentadiene-1-thione","Schulz and Schweig, 1981"
 252-09-5,Vertical value, C,8.11,PE,"[1,2]Dithiolo[1,5-b][1,2]dithiole-7-S(IV)","Gleiter, Hornung, et al., 1971"
 35246-22-1, , C,8.8 ¡À 0.1,EI,2-Tellurophenecarboxylic acid,"Distefano, Pignataro, et al., 1973"
 22968-45-2,LBLHLM, C,8.9,PE,2-Selenophenecarboxylic acid,"Reineck, Nohre, et al., 1983"
 120-73-0,RDSH, C,9.7 ¡À 0.1,EI,9H-Purine,"Lifschitz, Bergmann, et al., 1967"
 98-01-1,LL, C,9.22,PE,Furfural,"Klapstein, MacPherson, et al., 1990"
 930-60-9,LBLHLM, C,9.6,PE,"4-Cyclopentene-1,3-dione","Gleiter, Dobler, et al., 1982"
 19192-82-6,Vertical value, C,10.05,PE,3-Oxatricyclo[3.1.0.0,"Kreile, Munzel, et al., 1986"
 40159-76-0,Vertical value, C,8.58,PE,"[1,2]Oxathiolo[2,3-b][1,2]oxathiole-7-s(iv)","Gleiter, Gygax, et al., 1975"
 527-72-0, , C,9.35,EI,2-Thiophenecarboxylic acid,"Distefano, Pignataro, et al., 1973"
 68-94-0,RDSH, C,9. ¡À 0.,EI,"6H-Purin-6-one, 1,7-dihydro-","Lifschitz, Bergmann, et al., 1967"
 69-89-6,LLK, C,8.55,PE,Xanthine,"Dougherty, Younathan, et al., 1978"
 108-97-4,Vertical value, C,9.35 ¡À 0.05,PE,4H-Pyran-4-one,"Colonna, Distefano, et al., 1980"
 273-34-7,, C,9.20 ¡À 0.05,EI,"1H-1,2,3-Triazolo[4,5-b]pyridine","Thorstad and Undheim, 1974"
 399-66-6,Vertical value, C,9.6,PE,"[1,2,4]Triazolo[1,5-a]pyrazine","Lin, Yu, et al., 1980"
 273-05-2,, C,9.10 ¡À 0.05,EI,"1H-1,2,3-Triazlo[4,5-c]pyridine","Thorstad and Undheim, 1974"
 274-87-3,LBLHLM, C,9.25,PE,Pyridotetrazole,"Guimon, Khayar, et al., 1982"
 21986-03-8,LLK, C,8.67,PE,"1,2,3,4-Pentatetraene","Bieri, Dill, et al., 1977"