CAS,Comment,Formula,IE,Method,Name,Refer
 2579-21-7,Vertical value, C,10.03,PE,"Pent-2-ynal, 4,4-dimethyl-","Carlier and Mouvier, 1979"
 759-23-9,Vertical value, C,8.6,PE,"Stannane, triisopropyl-","Beltram, Fehlner, et al., 1980"
 52066-33-8,Vertical value, C,9.5,PE,"Hex-2-yn-4-one, 2-methyl-","Carlier and Mouvier, 1979"
 694-70-2,Vertical value, C,9.19,PE,"Bicyclo[2.2.1]hept-2-en-7-ol, anti-","Brown, 1976"
 13118-70-2,Vertical value, C,9.41,PE,"Bicyclo[2.2.1]hept-2-en-7-ol, syn-","Brown, 1976"
 59171-38-9,Vertical value, C,8.01,PE,2-Oxabicyclo[3.2.1]oct-3-ene,"Barraclough, Bilgic, et al., 1979"
 71932-98-4,Vertical value, C,9.58,PE,2-Heptyne-4-one,"Carlier and Mouvier, 1979"
 26059-43-8,Vertical value, C,9.67,PE,Hept-3-yn-2-one,"Carlier and Mouvier, 1979"
 111-84-2,LL, C,9.87,EST,Nonane,"Luo and Pacey, 1992"
 592-76-7,LL, C,9.38 ¡À 0.05,EI,1-Heptene,"Holmes and Lossing, 1991"
 592-78-9,, C,8.77 ¡À 0.02,PE,3-Heptene,"Ashmore and Burgess, 1978"
 108-87-2,LL, C,9.62 ¡À 0.05,EI,"Cyclohexane, methyl-","Holmes and Lossing, 1991"
 40950-21-8, , C,8.9,PE,"1,4-Diiodonorbornane","Honegger, Heilbronner, et al., 1985"
 56971-17-6,Vertical value, C,7.63 ¡À 0.10,PE,"1,3,6-Triaza-phosphatricyclo[4.3.1.1","Cowley, Lattman, et al., 1982"
 72576-54-6, , C,8,PE,"Iron, dicarbonyl(¦Ç-2,4-cyclopentadien-1-yl)[¦Ç","DeKock, Deshmukh, et al., 1983"
 56971-16-5,Vertical value, C,7.35 ¡À 0.10,PE,"1,3,6-Triaza-8-phosphatricyclo[4.3.1.1","Cowley, Lattman, et al., 1982"
 27664-61-5, , C,8.9,PE,"3-Methyl-2,8,9-trioxa-5-azonia-1-boratatricyclo[3.3.3.0(1,5)]undecane","Peel, Rothwell, et al., 1987"
 30826-80-3,LLK, C,7.5,PE,"N,N'-Diethylimidazolidine-2-thione","Andreocci, Devillanova, et al., 1980"
 6523-29-1,Vertical value; , C,8.28,PE,"1,2-Diazabicyclo[2.2.2]octane, 2-methyl-","Nelsen, 1984"
 14287-89-9,LBLHLM, C,6.66 ¡À 0.05,EQ,"2,3-Diazabicyclo[2.2.1]heptane, 2,3-dimethyl-","Rumack, 1986"
 2721-31-5,Vertical value; , C,8.63,PE,"3,3,5,5-Tetramethyl-1-pyrazoline","Houk, Chang, et al., 1975"
 6238-14-8,Vertical value; , C,7.96,PE,3-Amino-1-azabicyclo[2.2.2]octane,"Aue and Bowers, 1979"
 5721-43-7,Vertical value; , C,8.66,PE,"1H-Pyrazolo[1,2-a]pyridazine, hexahydro-","Nelsen, 1984"
 42003-39-4,Vertical value, C,9.2 ¡À 0.2,PE,"1-(chloromethyl)-2,8,9-trioxa-5-aza-1-silabicyclo[3.3.3]undecane","Peel and Dianxum, 1988"
 82946-55-2,Vertical value, C,8.1,PE,"3,4-Diazanona-3,5-diene","Kirste, Poppek, et al., 1984"
 281-17-4,Vertical value, C,7.75,PE,"1,5-Diazabicyclo[3.3.1]nonane","Nelsen and Buschek, 1974"
 73569-74-1,Vertical value, C,8.04,PE,"1H-Pyridazino[1,2-c][1,3,4]oxadiazine,hexahydro-","Katritzky, Baker, et al., 1980"
 53798-46-2,Vertical value, C,7.66,PE,"2,3-Diazabicyclo[2.2.1]heptane,2,3-dimethyl-,(2-endo,3-exo)-","Nelsen and Buschek, 1974"
 283-47-6,Vertical value; , C,7.43,PE,"1,5-Diazabicyclo[3.2.2]nonane","Nelsen and Buschek, 1974"
 70873-23-3,Vertical value; , C,8.51,PE,"1,7-Diazabicyclo[3.2.1]octane, 2-methyl-","Nelsen, 1984"
 38704-94-8,Vertical value, C,8.08,PE,"Pyridazine,1,2,3,6-tetrahydro-1,2,3-trimethyl-","Nelsen and Buschek, 1974"
 61008-71-7,Vertical value, C,9.03,PE,"1,2-Diazaspiro[2,5]octane, 1-methyl-","Klasinc, Mannschreck, et al., 1994"
 4054-38-0,RDSH, C,8.4,EI,"1,3-Cycloheptadiene","Lifshitz and Bauer, 1963"
 279-19-6,LBLHLM, C,8.7,PE,"Tricyclo[2.2.1.0(2,6)]heptane","Della, Pigou, et al., 1985"
 498-66-8,LL, C,8.6,PE,2-Norbornene,"Wen, Hitchcock, et al., 1990"
 4927-03-1,RDSH, C,9.37,EI,Bicyclo[3.2.0]hept-6-ene,"Lifshitz and Bauer, 1963"
 17679-93-5,LLK, C,7.96 ¡À 0.02,PE,"1,3,5-Heptatriene, (E,E)-","Allan, Dannacher, et al., 1980"
 1627-99-2,, C,9.39 ¡À 0.03,EI,"1,3,5-Trisilacyclohexane, 1,1,3,3,5,5-hexamethyl-","Pitt, Habercom, et al., 1968"
 2295-05-8,Vertical value, C,9.41,PE,"Silane, 1,3-propanediylbis[trimethyl-","Hosomi and Traylor, 1975"
 40950-22-9, , C,9.5,PE,"1,4-Dibromonorbornane","Honegger, Heilbronner, et al., 1985"
 63359-64-8,, C,7.96 ¡À 0.05,EI,"Thiophene,2,5-dimethyl-3-(methylthio)-","Cederlund, Lantz, et al., 1977"
 38390-62-4,, C,7.4 ¡À 0.1,LE,"8-Azabicyclo[3.2.1]oct-8-yloxy,3-oxo-","Summermann and Deffner, 1975"
 29507-64-0,Vertical value, C,8.15,PE,"3H-1,2-Dithiole-3-thione,5-(1,1-dimethylethyl)-","Gonbeau, Guimon, et al., 1975"
 696-32-2,LLK, C,8.84,PE,"Cyclohexane, difluoromethylene","Sarneel, Worrell, et al., 1980"
 63394-81-0,, C,7.73 ¡À 0.05,EI,"Selenophene,2,5-dimethyl-3-(methylthiol)-","Cederlund, Lantz, et al., 1977"
 35186-03-9,, C,9.86,PE,"Silane, trimethyl[3,3,3-trifluoro-1-(trifluoromethyl)-1-propenyl]-, (E)-","Cullen, Frost, et al., 1972"
 1551-27-5,RDSH, C,8.6 ¡À 0.2,EI,"Thiophene, 2-propyl-","Khvostenko, 1962"
 71017-55-5,Vertical value, C,7.92,PE,2-Thiabicyclo[3.2.1]oct-3-ene,"Barraclough, Bilgic, et al., 1979"
 618-40-6,, C,7.43,PE,"Hydrazine, 1-methyl-1-phenyl-","Bodor, Dewar, et al., 1970"
 1122-58-3,LLK, C,8.3 ¡À 0.1,EI,"4-Pyridinamine, N,N-dimethyl-","Stefanovic and Grutzmacher, 1974"
 5683-33-0,LLK, C,7.8 ¡À 0.1,EI,"N,N-Dimethyl-2-pyridinamine","Stefanovic and Grutzmacher, 1974"
 3618-79-9,LLK, C,7.62 ¡À 0.05,EI,"N,N-Dimethyl-2-pyridinamine, 1-oxide","Undheim, El-Gendy, et al., 1974"
 555-96-4,, C,8.64,PE,"Hydrazine, (phenylmethyl)-","Bodor, Dewar, et al., 1970"
 36100-40-0,LLK, C,7.85 ¡À 0.05,EI,"N,N-Dimethyl-3-pyridinamine, 1-oxide","Undheim, El-Gendy, et al., 1974"
 1005-31-8,LLK, C,7.32 ¡À 0.05,EI,"N,N-Dimethyl-4-pyridinamine, 1-oxide","Undheim, El-Gendy, et al., 1974"
 143800-06-0,Vertical value, C,7.88,PE,"N-(2,5-Dimethylpyrrol-L-yl)formamide","Zverev, 1992"
 4401-71-2,, C,8.3 ¡À 0.1,EI,"2,4(1H,3H)-Pyrimidinedione, 1,3,5-trimethyl-","Verkin, Sukodub, et al., 1976"
 23979-30-8,Vertical value, C,8.90 ¡À 0.05,PE,"3,4-Diazatricyclo[4.2.1.0","Brogli, Eberbach, et al., 1973"
 1638-26-2,, C,9.46 ¡À 0.05,EI,"Cyclopentane, 1,1-dimethyl-","Holmes and Lossing, 1991"
 14686-14-7,, C,8.92,EI,"3-Heptene, (E)-","Holmes, Fingas, et al., 1981"
 2213-32-3,LLK, C,9.025 ¡À 0.005,PE,"1-Pentene, 2,4-dimethyl-","Masclet, Grosjean, et al., 1973"
 1192-18-3,, C,9.92 ¡À 0.05,EI,"Cyclopentane, 1,2-dimethyl-, cis-","Herzschuh and Sicker, 1981"
 1640-89-7,LL, C,¡Ü9.60,EI,"Cyclopentane, ethyl-","Holmes and Lossing, 1991"
 822-50-4,LL, C,9.48 ¡À 0.05,EI,"Cyclopentane, 1,2-dimethyl-, trans-","Holmes and Lossing, 1991"
 6094-02-6,LLK, C,9.039 ¡À 0.005,PE,"1-Hexene, 2-methyl-","Masclet, Grosjean, et al., 1973"
 10574-37-5,LLK, C,8.213 ¡À 0.005,PE,"2-Pentene, 2,3-dimethyl-","Masclet, Grosjean, et al., 1973"
 291-64-5,LL, C,9.82 ¡À 0.05,EI,Cycloheptane,"Holmes and Lossing, 1991"
 2738-19-4,LLK, C,8.62,EI,"2-Hexene, 2-methyl-","Holmes, Fingas, et al., 1981"
 594-56-9,LLK, C,9.016 ¡À 0.007,PE,"1-Butene, 2,3,3-trimethyl-","Masclet, Grosjean, et al., 1973"
 3683-22-5,LLK, C,8.912 ¡À 0.005,PE,"2-Hexene, 4-methyl-, (E)-","Masclet, Grosjean, et al., 1973"
 690-08-4,LLK, C,8.908 ¡À 0.008,PE,"2-Pentene, 4,4-dimethyl-, (E)-","Masclet, Grosjean, et al., 1973"
 762-62-9,LLK, C,9.399 ¡À 0.003,PE,"1-Pentene, 4,4-dimethyl-","Masclet, Grosjean, et al., 1973"
 4125-18-2,LBLHLM, C,8.2,PE,"1,3-Cyclopentadiene, 5,5-dimethyl-","Guimon, Pfister-Guillouzo, et al., 1985"
 23056-94-2,LLK, C,8.66 ¡À 0.01,PE,"1-Hexen-3-yne, 2-methyl-","Carlier, Mouvier, et al., 1979"
 7161-35-5,RDSH, C,8.85 ¡À 0.03,PI,"1,4-Cycloheptadiene","Demeo and El-Sayed, 1970"
 4784-86-5,, C,8.1 ¡À 0.1,EI,"1,3-Cyclopentadiene, 1,2-dimethyl-","Meyer and Harrison, 1964"
 287-13-8,Vertical value; , C,8.72,PE,"Tricyclo[4.1.0.0(2,7)]heptane","Bischof, Gleiter, et al., 1978"
 17085-84-6, , C,8.5,PE,"Cyclopropane, 1,1-diethenyl-","Eckert-Maksie, Gleiter, et al., 1991"
 2566-57-6,Vertical value; , C,8.69,PE,Bicyclo[4.1.0]hept-2-ene,"Heilbronner, Gleiter, et al., 1973"
 26456-63-3,LBLHLM, C,9.1,PE,"1,4-Pentadiene, 3-ethenyl-","Gleiter, Haider, et al., 1983"
 7385-82-2,LLK, C,8.919 ¡À 0.005,PE,"2-Hexene, 5-methyl-, (E)-","Masclet, Grosjean, et al., 1973"
 592-77-8,LLK, C,8.84 ¡À 0.02,PE,2-Heptene,"Ashmore and Burgess, 1978"
 762-63-0,LLK, C,8.922 ¡À 0.008,PE,"2-Pentene, 4,4-dimethyl-, (Z)-","Masclet, Grosjean, et al., 1973"
 174-73-2, , C,8.6,PE,Tricyclo[4.1.0.0,"Gleiter, Krennrich, et al., 1986"
 51273-50-8,LBLHLM, C,8.7,PE,Tricyclo[3.1.1.0,"Abeywickrema, Della, et al., 1984"
 24587-26-6,Vertical value, C,8.28,PE,"1,3,5-Hexatriene, 3-methyl-, (E)-","Astrup, Bock, et al., 1975"
 20968-70-1,, C,8.58,PE,"Cyclopentane,1,2-bis(methylene)-","Scharf, Plum, et al., 1979"
 52708-23-3,Vertical value; , C,8.48,PE,"Spiro[2,4]hept-4-ene","Bruckmann and Klessinger, 1974"
 14272-82-3,LLK, C,8.70 ¡À 0.01,PE,"(E)-Pent-1-yne-3-ene, 3-ethyl-","Carlier, Mouvier, et al., 1979"
 2453-00-1,, C,9.56 ¡À 0.05,EI,"Cyclopentane, 1,3-dimethyl-","Holmes and Lossing, 1991"
 1003-19-6,, C,8.56 ¡À 0.05,EI,"Cyclopropane, 1,1-diethyl-","Holmes and Lossing, 1991"
 872-56-0,, C,9.28 ¡À 0.05,EI,Isopropylcyclobutane,"Holmes and Lossing, 1991"
 71153-31-6,Vertical value, C,7.84,PE,"Cyclopropene, 3-methyl-3-isopropenyl-","Plemenkov, Zverev, et al., 1989"
 39968-66-6,Vertical value, C,8.1,PE,"1,2,4-Pentatriene, 3,4-dimethyl-","Delwiche, Praet, et al., 1979"
 1112-06-7,Vertical value; , C,8.56,PE,"Disilanne, 1-ethenyl-1,1,2,2,2-pentamethyl-","Khvostenko, Zykov, et al., 1981"
 1184-91-4,, C,8.98 ¡À 0.12,EI,"Germane, tert-butyltrimethyl-","Lappert, Pedley, et al., 1971"
 126223-53-8,, C,9.43,PI,"1,2-Dicarbadodecaborane(12), 1-heptyl-","Orlov, Pustobaev, et al., 1989"
 5037-65-0,RDSH, C,9.34 ¡À 0.06,EI,"Silane, trimethyl-tert-butyl-","Hess, Lampe, et al., 1965"
 13407-18-6,Vertical value, C,9.27,PE,"Cyclohexene,4-methylene-","Asmus and Klessinger, 1974"
 10524-51-3,Vertical value, C,7.19,PE,"Methanetetramine, octamethyl-","Gibbins, Lappert, et al., 1975"
 4806-62-6,, C,10. ¡À 0.1,EI,"Cyclobutane, propyl-","Haib and Stahl, 1990"
 35434-81-2,Vertical value, C,9.46,PE,"1,3-Bis(trimethylstannyl)propane","Hosomi and Traylor, 1975"
 7788-37-6,, C,7.6,EI,"Digermane, 1,1,1-triethyl-2,2,2-trimethyl-","deRidder and Dijkstra, 1968"
 51549-86-1,LLK, C,8.83,PE,"Cyclopropane, (1-methyl-1,2-propadienyl)-","Dewar, Fonken, et al., 1976"
 13151-17-2,LLK, C,8.917 ¡À 0.005,PE,"(Z)-Hex-2-ene, 5-methyl-","Masclet, Grosjean, et al., 1973"
 21030-11-5,, C,7.26,EI,Bis(trimethylphosphite(p))cobalt carbonyl nitrosyl),"Innorta, Distefano, et al., 1968"
 12306-95-5,Vertical value, C,7.33,PE,¦Ç,"Gleiter, Hyla-Kryspin, et al., 1992"
 3229-73-0,, C,7.40 ¡À 0.05,EI,"1H-Pyrrol-1-yloxy, 3-(aminocarbonyl)-2,5-dihydro-2,2,5,5-tetramethyl-","Hvistendahl and Undheim, 1971"
 71017-44-2,Vertical value, C,8.7,PE,2-Azabicyclo[3.2.1]octane-2-carboxylic acid methyl ester,"Barraclough, Bilgic, et al., 1979"
 17197-62-5,, C,9.42,EI,"2,4-Azetidinedione,3,3-bis(1-methylethyl)-","Compernolle and DeSchryver, 1975"
 26458-76-4,Vertical value, C,8.42 ¡À 0.015,PE,1-Azabicyclo[2.2.2]octane-4-ol acetate(ester),"Bieri and Heilbronner, 1974"
 4149-06-8, , C,7.4,PE,3-Amino-1-phenyl-2-pyrazolin-5-one,"Vondrak, Bastl, et al., 1988"
 104598-80-3, , C,8.8,PE,"Cyclohexane, 1,1-dimethoxy-3-methylene-","Lambert, Xue, et al., 1986"
 38942-51-7,Vertical value, C,7.78,PE,"4H-1,2,4-Triazole-3-thiol, 4-methyl-5-phenyl-","Guimon, Pfister-Guillouzo, et al., 1975"
 11077-12-6,, C,7.2 ¡À 0.1,EI,"Iron, (¦Ç5-2,4-cyclopentadien-1-yl)(¦Ç5-1H-pyrrol-1-yl)-","Cataliotti, Foffani, et al., 1970"
 936-52-7,Vertical value, C,7.60 ¡À 0.05,PE,N-(1-Cyclopenten-1-yl)-morpholine,"Domelsmith and Houk, 1977"
 701-58-6,Vertical value; , C,8.11,PE,"2-Cyclohexenone,3-(N-methylamino),5,5-dimethyl","Pfister-Guillouzo, Geribaldi, et al., 1982"
 57066-25-8,Vertical value, C,8.01,PE,Clonidine,"de Jong and Van Dam, 1980"
 7697-14-5,Vertical value, C,9.17 ¡À 0.05,PE,"Bicyclo[2.2.2]octane,1-methoxy-","Brown and Marcinko, 1978"
 56206-39-4,, C,9.07 ¡À 0.03,PE,"Bicyclo[2.2.2]octane,2-methoxy-","Neijzen, Schmitz, et al., 1975"
 102-70-5,LLK, C,7.6,PE,"2-Propen-1-amine, N,N-di-2-propenyl-","Aue and Bowers, 1979"
 281-27-6,LLK, C,7.57 ¡À 0.02,PE,1-Azatricyclo[3.3.1.1,"Worrell, Verhoeven, et al., 1974"
 7326-44-5,Vertical value; , C,7.46,PE,1-Azetidinocyclohexene,"Muller, Previdoli, et al., 1981"
 99838-33-2,Vertical value, C,8.25,PE,8-Methyl-3-methylene-8-azabicyclo[3.2.1]octane,"Spanka and Rademacher, 1986"
 7148-07-4,LLK, C,7.1,PE,"Pyrrolidine, 1-(1-cyclopenten-1-yl)-","Aue and Bowers, 1979"
 768-66-1,LBLHLM, C,7.59 ¡À 0.05,PE,"Piperidine, 2,2,6,6-tetramethyl-","Rozeboom and Houk, 1982"
 29909-46-4,Vertical value, C,8.7 ¡À 0.1,PE,"2,8,9-Trioxa-5-aza-1-silabicyclo[3.3.3]undecane-1-propanethiol","Peel and Dianxum, 1988"
 10315-89-6,Vertical value; , C,8.16 ¡À 0.03,PE,1-Isobutyl-piperidine,"Colonna, Distefano, et al., 1975"
 73676-23-0,Vertical value, C,7.93,PE,"Octahydroazocine,1-ethyl-","Spanka, Boese, et al., 1987"
 83-34-1,LL, C,7.5143 ¡À 0.0006,LS,"Indole, 3-methyl-","Hager and Wallace, 1988"
 2947-60-6,RDSH, C,9.18 ¡À 0.04,EI,3-Methylbenzyl cyanide,"Buchs, 1970"
 603-76-9,LL, C,7.4008 ¡À 0.0006,LS,"1H-Indole, 1-methyl-","Hager and Wallace, 1988"
 33804-84-1,Vertical value; , C,7.12,PE,2-Methylisoindole,"Rettig and Wirz, 1976"
 933-67-5,LL, C,7.7136 ¡À 0.0006,LS,"1H-Indole, 7-methyl-","Hager and Wallace, 1988"
 614-96-0,, C,7.3799 ¡À 0.0006,LS,"1H-Indole, 5-methyl-","Hager and Wallace, 1988"
 95-20-5,LL, C,7.6708 ¡À 0.0006,LS,"1H-Indole, 2-methyl-","Hager and Wallace, 1988"
 22884-95-3,, C,9.16 ¡À 0.04,EI,"Benzonitrile, 3,4-dimethyl-","Buchs, 1970"
 16096-32-5,LLK, C,7.60 ¡À 0.015,PE,"1H-Indole, 4-methyl-","Gusten, Klasinc, et al., 1976"
 19111-74-1,LLK, C,8.4,PE,"Benzonitrile,2,6-dimethyl-N-oxide","Bastide, Maier, et al., 1976"
 104-47-2,RDSH, C,8.77 ¡À 0.05,EI,"Benzeneacetonitrile, 4-methoxy-","Buchs, 1970"
 30277-00-0,, C,6.84 ¡À 0.05,EI,"Thiazolo[3,2-a]pyridinium, 8-hydroxy-3,5-dimethyl-, hydroxide, inner salt","Laerum and Undheim, 1978"
 71310-15-1,, C,7.32,EI,"5H-Thiazolo[3,2-a]pyridin-5-one,3,8-dimethyl-","Laerum and Undheim, 1978"
 40806-93-7,Vertical value; , C,9.62,PE,"Benzene, 1-[2-(methylsulfonyl)ethenyl]-4-nitro-","Cauletti, Furlani, et al., 1984"
 556-08-1,, C,8.7 ¡À 0.2,EI,Acedoben,"Gamble, Gilbert, et al., 1970"
 23024-83-1,, C,8.72 ¡À 0.06,EI,"3,4-Dimethoxybenzoic acid nitrile","Buchs, 1970"
 25117-74-2,, C,8.89 ¡À 0.15,EI,"Benzonitrile, 4-ethoxy-","McLafferty and Schiff, 1969"
 65194-03-8,, C,7.81,PE,"Isoquinolinium,3,4-dihydro-2-hydroxy-hydroxide,inner salt","Houk, Bimanand, et al., 1977"
 24423-87-8,Vertical value, C,7.81,PE,"Isoquinoline,3,4-dihydro-2-oxide","Houk, Caramella, et al., 1977"
 21872-33-3,Vertical value, C,9.37,PE,"Benzene,(1-isocyanoethyl)-(r)-","Young and Cheng, 1976"
 3420-02-8,LLK, C,7.54 ¡À 0.015,PE,"1H-Indole, 6-methyl-","Gusten, Klasinc, et al., 1976"
 2947-61-7,RDSH, C,9.16 ¡À 0.06,EI,"Benzeneacetonitrile, 4-methyl-","Buchs, 1970"
 70784-97-3,Vertical value; , C,8.94,PE,"Benzene, 1-chloro-4-[(2-(methylsulfonyl)ethenyl]-","Cauletti, Furlani, et al., 1984"
 1798-84-1,Vertical value; , C,8.64,PE,1-Chloro-4-cyclopropylbenzene,"Prins, Verhoeven, et al., 1977"
 2241-68-1,Vertical value, C,10.18,PE,"Phosphite, tris(2,2,3,3-tetrafluoropropyl)-","Zverev, Sinyashina, et al., 1990"
 77355-30-7,Vertical value; , C,9.05,PE,"Benzene, 1-fluoro-4-[2-(methylsulfonyl)ethenyl]-","Cauletti, Furlani, et al., 1984"
 67144-63-2,Vertical value, C,7.64,PE,"3,4-Diazatricyclo[4.2.1.0","Nelsen, Peacock, et al., 1978"
 72282-74-7,Vertical value; , C,8.25,PE,"1,4-Methanopyrazino[1,2-a]pyridazine,octahydro-","Nelsen, 1984"
 25117-75-3,, C,8.92 ¡À 0.15,EI,"Benzonitrile, 3-ethoxy-","McLafferty and Schiff, 1969"
 363-64-4,Vertical value, C,8.76 ¡À 0.02,PE,"Benzene,1,3,5-trifluoro-2,4,6-trimethyl-","Maier, Marthaler, et al., 1980"
 55188-59-5,Vertical value, C,8.34,PE,"Rhodium, 1,1,1,5,5,5-hexafluoro-2,4-pentanedionato-o,o')-bis¦Ç","Van Dam, Terpstra, et al., 1980"
 2896-70-0,LLK, C,7.4 ¡À 0.1,LE,"2,2,6,6-tetramethyl-4-oxopiperidinooxy","Summermann and Deffner, 1975"
 4551-51-3,LLK, C,9.46 ¡À 0.06,PI,"1H-Indene, octahydro-, cis-","Mikaya and Zaikin, 1980"
 2423-01-0,, C,8.45 ¡À 0.01,PE,"Cyclopentene, 1-butyl-","Rang, Paldoia, et al., 1974"
 56898-51-2,Vertical value, C,9.45,PE,"Pyridine,4-(1,1-dimethylethyl)-,compound with borane(1:1)","Weiner and Lattman, 1975"
 22531-00-6,, C,8.83 ¡À 0.02,PE,"Cyclopentene,3-butyl-","Rang, Paldoia, et al., 1974"
 3452-09-3,LLK, C,9.93 ¡À 0.02,PI,1-Nonyne,"Rang and Martinson, 1978"
 3983-06-0,, C,8.80 ¡À 0.01,PE,"Cyclohexene,3-propyl-","Rang, Paldoia, et al., 1974"
 82666-06-6,Vertical value; , C,8.34,PE,"2-Chloro-3,3-dimethyl-2-azabicyclo[2.2.2]octane","Nelsen and Gannett, 1982"
 2539-75-5,, C,8.43 ¡À 0.01,PE,"Cyclohexene,1-propyl-","Rang, Paldoia, et al., 1974"
 3296-50-2,LLK, C,9.46 ¡À 0.06,PI,"1H-Indene, octahydro-, trans-","Mikaya and Zaikin, 1980"
 38951-83-6,, C,8.01,PE,"4-Piperidinone,1-chloro-2,2,6,6-tetramethyl-","Bodor, Kaminski, et al., 1974"
 96480-95-4, , C,7.4,PE,"Manganese, ¦Ç","Green, Paz-Sandoval, et al., 1985"
 19447-29-1,LLK, C,9.32 ¡À 0.02,PI,2-Nonyne,"Rang and Martinson, 1978"
 20184-89-8,LLK, C,9.20 ¡À 0.02,PI,3-Nonyne,"Rang and Martinson, 1978"
 53098-47-8,, C,8.44 ¡À 0.01,PE,"Cyclopentene,1-(2-methylpropyl)-","Rang, Paldoia, et al., 1974"
 20184-91-2,LLK, C,9.17 ¡À 0.03,PI,4-Nonyne,"Rang and Martinson, 1978"
 4900-30-5,Vertical value, C,9.51 ¡À 0.02,PE,"1,8-Nonadiene","Bunzli, Burak, et al., 1973"
 39124-79-3,Vertical value; , C,9.36,PE,trans-(+)-Bicyclo-[6.1.0]nonane,"Heilbronner, Gleiter, et al., 1973"
 56700-77-7,LLK, C,8.44,PE,"1,3-Nonadiene, (E)-","Masclet, Mouvier, et al., 1981"
 280-65-9,, C,9.35,PE,Bicyclo[3.3.1]nonane,"Bewick, Edwards, et al., 1976"
 933-21-1,LLK, C,8.81 ¡À 0.15,EI,cis-Cyclononene,"Remane, Graefe, et al., 1972"
 2034-53-9,, C,8.3,PE,"7,7-Dimethyl-bicyclo[2.2.1]heptane","Heilbronner and Martin, 1972"
 286-60-2,Vertical value; , C,9.4,PE,Bicyclo[6.1.0]nonane,"Bischof, Heilbronner, et al., 1971"
 994-21-8,, C,9.154 ¡À 0.010,PE,"2-Hexyne, 4,4,5-trimethyl","Carlier, Dubois, et al., 1975"
 67291-83-2,, C,9.183 ¡À 0.010,PE,"2-Heptyne, 4,4-dimethyl","Carlier, Dubois, et al., 1975"
 3618-18-6,Vertical value, C,8.79,PE,Methylenecyclooctane,"Spanka and Rademacher, 1986"
 283-19-2,LLK, C,9,PE,Bicyclo[3.2.2]nonane,"Goldstein, Natowsky, et al., 1973"
 451-69-4,LBLHLM, C,9,EI,"2-Propenoic acid, 3-(2-fluorophenyl)-","Schaldach, 1984"
 253-37-2,, C,8.04,PE,Isophosphinoline,"Schafer, Schweig, et al., 1975"
 90276-19-0,LBLHLM, C,8.55,EI,"2-Propenoic acid, 3-(2-iodophenyl)-(E)-","Schaldach, 1984"
 31053-06-2,, C,8.2 ¡À 0.1,EI,"1,3,2-Diazaphosphetidin-4-one,2,2-difluoro-2,2-dihydro-1,2-dimethyl-3-phenyl-","Baldwin, Loudon, et al., 1977"
 32707-15-6,, C,8.8 ¡À 0.1,EI,"1,3,2-Diazaphosphetidin-4-one,2,2-difluoro-2,2-dihydro-1,3-dimethyl-2-phenyl-","Baldwin, Loudon, et al., 1977"
 53666-09-4,, C,7.6,EI,"Methanimidamide,N'-(2-fluorophenyl)-N,N-dimethyl-","Kuschel and Grutzmacher, 1974"
 77659-29-1, , C,8.5,PE,"o,o'-Dipropyl allyl phosphonothioate","Zverev, Villem, et al., 1981"
 7499-56-1,LBLHLM, C,8.8,EI,(E)-3-(2-Bromophenyl)propenoic acid,"Schaldach, 1984"
 12108-14-4,Vertical value, C,8.06 ¡À 0.05,PE,"Manganese, tricarbonyl[(1,2,3,4,5-¦Ç","Whitesides, Lichtenberger, et al., 1975"
 12108-13-3,LLK, C,7.5,PE,"Manganese, tricarbonyl[(1,2,3,4,5-¦Ç)-1-methyl-2,4-cyclopentadien-1-yl]-","Calabro and Lichtenberger, 1981"
 4513-41-1,LBLHLM, C,8.85,EI,2-[2-Chlorophenyl]propenoic acid,"Schaldach, 1984"
 49716-52-1,, C,7.72 ¡À 0.02,EI,"Manganese,(carbonothioyl)dicarbonyl[(1,2,3,4,5-¦Ç","Efraty, Huang, et al., 1975"
 91-22-5,LLK, C,8.62,PE,Quinoline,"Schafer, Schweig, et al., 1973"
 550-44-7,Vertical value, C,9.55 ¡À 0.05,PE,"1H-Isoindole-1,3(2H)-dione, 2-methyl-","Distefano, Jones, et al., 1978"
 1129-35-7,RDSH, C,9.72,EI,"Benzoic acid, 4-cyano-, methyl ester","Howe and Williams, 1969"
 1443-80-7,Vertical value; , C,9.78,PE,"Benzonitrile, 4-acetyl-","Distefano, Granozzi, et al., 1987"
 614-16-4,RDSH, C,9.56 ¡À 0.05,EI,"Benzenepropanenitrile, ¦Â-oxo-","Pignataro, Foffani, et al., 1966"
 59-31-4,Vertical value, C,8.4,PE,2(1H)-Quinolinone,"Pfister-Guillouzo, Guimon, et al., 1981"
 611-36-9,, C,8.2,PE,4-Quinolinol,"Pfister-Guillouzo, Guimon, et al., 1981"