CAS,Comment,Formula,IE,Method,Name,Refer
 55259-49-9,Vertical value, C,6.58,PE,Tetramethyltetraselenafulvalene,"Gleiter, Kobayashi, et al., 1975"
 1578-44-5,Vertical value; , C,8.6,PE,Di-(2-furyl)dimethyl silane,"Zykov, Erchak, et al., 1983"
 77355-29-4,LBLHLM, C,8.3,PE,2-(p-Methylphenyl)vinylmethylsulfone,"Cauletti, Furlani, et al., 1984"
 103-25-3,, C,9.1 ¡À 0.1,EI,"Benzenepropanoic acid, methyl ester","Occolowitz, 1967"
 1821-12-1,, C,9.0 ¡À 0.1,EI,Benzenebutanoic acid,"Occolowitz, 1967"
 527-17-3,LLK, C,9.1,PE,Duroquinone,"Bock, Kaim, et al., 1980"
 87305-43-9,LBLHLM, C,8.8,PE,Syn-tricyclo[6.2.0.0,"Gleiter, Jahne, et al., 1985"
 6479-03-4,Vertical value; , C,8.6,PE,"Pyrazino(2,3-b)pyrazine, 2,3,6,7-tetramethyl-","Gleiter, Spanget-Larsen, et al., 1984"
 1009-11-6,, C,8.7 ¡À 0.2,EI,"1-Butanone, 1-(4-hydroxyphenyl)-","McLafferty and Wachs, 1967"
 4893-00-9,LBLHLM, C,9.0 ¡À 0.02,EI,"Dispiro[3.1.3.1]decane-5,10-dione","Olivares, Flesch, et al., 1984"
 12307-07-2,Vertical value, C,7.51,PE,"Iron,[(2,3,5,6-¦Ç)-bicyclo[2.2.1]hepta-2,5-diene]tricarbonyl-","Worley, Webb, et al., 1980"
 36343-88-1,Vertical value, C,7.76,PE,"Iron, tricarbonyl[(1,2,3,4-¦Ç","Green, Powell, et al., 1976"
 39751-07-0, , C,9.06,PE,Tricyclo[3.3.1.1,"Worley, Mateescu, et al., 1973"
 97628-11-0,Vertical value; , C,9.06,PE,Tricyclo[4.2.2.0,"Albert, Heller, et al., 1985"
 87305-42-8,LBLHLM, C,8.8,PE,Anti-tricyclo[6.2.0.0,"Gleiter, Jahne, et al., 1985"
 14871-43-3,, C,7.73 ¡À 0.01,EI,Bis(¦Ìdifluorophosphine)diiron hexacarbonyl,"Junk, Preston, et al., 1970"
 60096-27-7,LLK, C,7.3,PE,"2,2-Dimethyl-2,3-dihydrobenzoselenophene","Baker, Armen, et al., 1981"
 881-64-1, , C,6.1,PE,"Dipyrido[1,2-b:1',2'-e][1,2,4,5-]tetrazine","Lecoultre and Heilbronner, 1987"
 42850-82-8,Vertical value, C,8.4,PE,"4H,6H-Dithieno[3,4-c:3',4'-e]thiepin","Meunier and Pfister-Guillouzo, 1977"
 6921-83-1,Vertical value, C,8.1,PE,"3H-1,2-Dithiole-3-thione,5-(4-methylphenyl)-","Gonbeau, Guimon, et al., 1975"
 553-26-4,LLK, C,9.10 ¡À 0.02,PE,"4,4'-Bipyridine","Maier and Turner, 1972"
 366-18-7,LBLHLM, C,8.6,PE,"2,2'-Bipyridine","Dobson, Hillier, et al., 1983"
 776-34-1,, C,7.73 ¡À 0.02,PI,"1-Naphthalenamine, 4-nitro-","Potapov, Kardash, et al., 1972"
 19005-04-0, , C,9.6,PE,"2,3-Dicyanobicyclo[2.2.2]octa-2,5-diene","Kobayashi, Yoshida, et al., 1987"
 607-23-8,, C,7.79 ¡À 0.02,PI,"1-Naphthalenamine, 2-nitro-","Potapov, Kardash, et al., 1972"
 63286-55-5,Vertical value, C,8.15,PE,"Dithieno[2,3-c:3',2'-e]thiepin,4,6-dihydro-","Meunier and Pfister-Guillouzo, 1977"
 37904-72-6,Vertical value, C,7.7,PE,"Ethanone, 2-bromo-1-(4-nitrophenyl)-","Distefano, Granozzi, et al., 1987"
 59-98-3,Vertical value, C,8.5,PE,"1H-Imidazole, 4,5-dihydro-2-(phenylmethyl)-","De Jong and van Dam, 1979"
 61-54-1,Vertical value, C,7.69 ¡À 0.08,PE,Tryptamine,"Domelsmith, Munchausen, et al., 1977"
 24046-14-8,Vertical value, C,7.77,PE,"1,1'-Bi-1H-pyrrole,2,5-dimethyl","Flitsch, Peeters, et al., 1978"
 31488-71-8,, C,6.45,PE,"2,3-Dihydro-1,3-dimethyl-2-methylene benzimidazole","Quast, Ach, et al., 1993"
 7140-45-6,Vertical value, C,7.92,PE,"1,4-Ethanoquinoxaline, 2,3-dihydro-","Nelsen, Grezzo, et al., 1981"
 3438-48-0,LBLHLM, C,8.65,PE,"Pyrimidine, 4-phenyl-","Barone, Cauletti, et al., 1984"
 32677-78-4, , C,7,PE,"1,1'-Ferrocenetrisulfide","Ushijima, Akiyama, et al., 1987"
 140-67-0,Vertical value, C,8.2,PE,Estragole,"Eaton and Traylor, 1974"
 495-40-9,LLK, C,9.1 ¡À 0.1,EI,"1-Butanone, 1-phenyl-","Dallinga, Nibbering, et al., 1981"
 2550-26-7,, C,9.0 ¡À 0.1,EI,"2-Butanone, 4-phenyl-","Occolowitz, 1967"
 70784-98-4,Vertical value; , C,8.52,PE,2-(p-Methoxyphenyl)vinylmethylsulfone,"Cauletti, Furlani, et al., 1984"
 37035-32-8,Vertical value, C,9,PE,"Platinum, [(1,2,5,6-¦Ç)-1,5-cyclooctadiene]bis(trifluoromethyl)-","Yang, Bancroft, et al., 1990"
 33248-78-1,Vertical value, C,8.68,PE,"Iron, tetracarbonyl[(2,3-¦Ç)-dimethyl-2-butenedioate","Van Dam and Oskam, 1979"
 529-33-9,, C,8.70 ¡À 0.01,EI,"1-Naphthalenol, 1,2,3,4-tetrahydro-","Gross, Chiu, et al., 1977"
 530-91-6,, C,8.67 ¡À 0.02,EI,"1,2,3,4-Tetrahydro-2-naphthol","Gross, Chiu, et al., 1977"
 935-64-8,, C,8,EI,"Cyclobutanol, 1-phenyl-","Mikaya, Zaikin, et al., 1979"
 31729-66-5,LLK, C,8.35,EI,"Cyclopropanemethanol, 1-phenyl-","Dallinga, Nibbering, et al., 1981"
 18328-11-5,, C,8.8 ¡À 0.1,EI,Benzenebutanal,"Occolowitz, 1967"
 4030-17-5,Vertical value, C,8.05,PE,"Benzene,1-cyclopropyl-4-methoxy-","Prins, Verhoeven, et al., 1977"
 1007-03-0,LLK, C,8.3 ¡À 0.1,EI,Cyclopropyl phenylmethanol,"Dallinga, Nibbering, et al., 1981"
 81825-45-8, , C,8.5,PE,"Bicyclo[2.2.2]octanone, 5,6-bis(methylene)-","Carrupt, Gabioud, et al., 1987"
 50708-37-7, , C,6.03,PE,Tetramethyltetrathiafulvalene,"Sato, Seki, et al., 1981"
 35437-21-9,Vertical value, C,7.34,PE,"3H-[1,2]Dithiolo[4,5,1-hi][1,2]benzodithiole-8-s(iv),4,5-dihydro-2,6-dimethyl-","Gleiter, Hornung, et al., 1971"
 58657-45-7,Vertical value, C,7.85,PE,"1,3-Benzodithiole-2-ethyl-2-methyl-","Guimon, Pfister-Guillouzo, et al., 1976"
 94890-84-3,Vertical value, C,7.5,PE,"Iron, ¦Ç","Guimon, Pfister-Guillouzo, et al., 1985"
 33100-27-5,LLK, C,8.9,PE,15-Crown-5,"Kajitani, Sugimori, et al., 1979"
 1578-29-6, , C,7.8,PE,"2,5-Bis(trimethylsilyl)furan","Veszpremi, Nyulaszi, et al., 1987"
 937-05-3,Vertical value, C,9.82 ¡À 0.02,PE,"Cyclohexanol, 4-(1,1-dimethylethyl)-, cis-","Brown, Marcinko, et al., 1979"
 21862-63-5,Vertical value, C,9.91 ¡À 0.02,PE,"Cyclohexanol, 4-(1,1-dimethylethyl)-, trans-","Brown, Marcinko, et al., 1979"
 825-55-8,LLK, C,8.06,CTS,"Thiophene, 2-phenyl-","Aloisi, Santini, et al., 1975"
 35569-11-0,Vertical value, C,8.22,PE,(di-tert-butyl)dimethylstannane,"Kochi, 1980"
 119-64-2,LBLHLM, C,8.44,EI,"Naphthalene, 1,2,3,4-tetrahydro-","Dass and Gross, 1985"
 2039-89-6,, C,8.00 ¡À 0.02,PE,"Benzene, 2-ethenyl-1,4-dimethyl-","Maier and Turner, 1973"
 1291-40-3,Vertical value; , C,6.4 ¡À 0.1,PE,"Molybdenum,bis(¦Ç-2,4-cyclopentadien-1-yl)dihydro-","Green, Jackson, et al., 1975"
 1528-00-3,Vertical value, C,8.8,PE,"Stannane, dibutyldimethyl-","Kochi, 1980"
 1271-33-6,LLK, C,6.4 ¡À 0.2,LE,Bis(¦Ç,"Nakato, Chiyoda, et al., 1974"
 14693-30-2,LLK, C,8.22 ¡À 0.01,EI,"Rhenium, pentacarbonyl(pentacarbonylmanganese)-, (Mn-Re)","Michels and Svec, 1981"
 770-09-2,LLK, C,8.35,PE,"Silane, trimethyl(phenylmethyl)-","Bock, Kaim, et al., 1978"
 33694-15-4,, C,8.50 ¡À 0.05,EI,"Butanamide,N-(2-chlorophenyl)-","Baldwin, Loudon, et al., 1976"
 110945-00-1,Vertical value, C,7.69,PE,"Ethanone, 2-chloro-1-[4-(dimethylamino)phenyl]-","Distefano, Granozzi, et al., 1987"
 53561-47-0,Vertical value, C,8.15,PE,"1-Thiacycloheptane,3,3,6,6-tetramethyl-","Schmidt, Schweig, et al., 1974"
 17906-71-7,LBLHLM, C,7.8,PE,"2,5-bis(Trimethylsilyl)thiophene","Veszpremi, Harada, et al., 1983"
 767-58-8,LBLHLM, C,8.47,EI,"Indan, 1-methyl-","Dass and Gross, 1985"
 768-49-0,, C,7.78 ¡À 0.04,EI,"Benzene, (2-methyl-1-propenyl)-","Benito, Seidl, et al., 1973"
 77-73-6,, C,8.79 ¡À 0.05,PE,Dicyclopentadiene,"Baker, Betteridge, et al., 1970"
 2234-20-0,Vertical value, C,8.22,PE,"2,4-Dimethylstyrene","Kobayashi, Yokota, et al., 1973"
 52908-35-7,, C,8.39 ¡À 0.05,PE,"Thiirane, 2,3-bis(1,1-tert-butyl)-, trans-","Block, Yencha, et al., 1988"
 1587-04-8,LBLHLM, C,7.78 ¡À 0.04,EI,"Benzene, 1-methyl-2-(2-propenyl)-","Dass and Gross, 1985"
 768-56-9,LBLHLM, C,8.6,EI,"Benzene, 3-butenyl-","Dass and Gross, 1985"
 2039-90-9,LLK, C,8.10 ¡À 0.02,PE,"Benzene, 2-ethenyl-1,3-dimethyl-","Maier and Turner, 1973"
 1005-64-7,LLK, C,8,PE,(E)-1-Phenyl-1-butene,"Kobayashi, Arai, et al., 1981"
 3451-55-6,Vertical value, C,8.55,PE,"1,2,6,7-Cyclodecatetraene","Bohm and Gleiter, 1978"
 1560-09-4,LLK, C,8.15,PE,"Benzene, 1-butenyl-, (Z)-","Kobayashi, Arai, et al., 1981"
 493-04-9,RDSH, C,8.2,PE,"Naphthalene, 1,4,5,8-tetrahydro-","Bischof, Hashmall, et al., 1970"
 74963-96-5,Vertical value, C,8.72,PE,Tetracyclo[5.3.0.0,"Spanget-Larsen, Gleiter, et al., 1980"
 4392-30-7,LBLHLM, C,8.77,EI,"Benzene, cyclobutyl-","Dass and Gross, 1985"
 36262-33-6,LLK, C,7.33 ¡À 0.05,PI,"Dispiro[2.2.2.2]deca-4,9-diene","Nakato, Chiyoda, et al., 1974"
 72569-84-7,Vertical value; , C,~9.0,PE,"Bicyclo[3.2.1.]oct-6-ene,2,4-bis(methylene)-","Martin, Heller, et al., 1980"
 63238-49-3,Vertical value; , C,7.58,PE,"1,4-Cyclohexadiene,1,4-dimethyl-3,6-bis(methylene)-","Dewar, 1982"
 2214-14-4,LBLHLM, C,8.57,PI,1-Phenyl-1-methylcyclopropane,"Domnin, Lakshin, et al., 1985"
 36528-62-8,Vertical value, C,8.33 ¡À 0.03,PE,"Bicyclo[2.2.2]oct-2-ene,5,6-bis(methylene)-","Pfeffer, Klessinger, et al., 1975"
 31678-74-7,Vertical value; , C,9,PE,"Cyclopenta[c,d]pentalene, 2a,4a,7a,7b-tetrahydro-","Bischof, Bosse, et al., 1975"
 66039-62-1, , C,8.1,PE,Tricyclo[5.3.0.0,"Gleiter, Toyota, et al., 1988"
 27335-51-9, , C,8.4,PE,Tetracyclo[3.3.2.0,"Gleiter, Bohm, et al., 1983"
 27367-72-2, , C,8.6,PE,Tetracyclo[3.3.2.0,"Gleiter, Bohm, et al., 1983"
 50895-59-5,Vertical value, C,8.78,PE,"Tricycloprop[cd,f,hi]indene,decahydro-,(1a&#945;,1b&#945;,1c&#946;,2a&#946;,2b&#945;,2c&#945;,2d&#945;,2e&#945;)-","Heilbronner, Gleiter, et al., 1973"
 6675-72-5,, C,7.96,PE,"Tricyclo[5.2.1.0<sup>2,6</sup>deca-2,5-diene","Bohm, Carr, et al., 1980"
 36456-22-1,LLK, C,7.97,PE,"Bicyclo[2.2.1]hepta-2,5-diene, 7-(1-methylethylidene)","Heilbronner and Martin, 1972"
 28339-41-5,Vertical value, C,9.08 ¡À 0.02,PE,"1,2,3-Metheno-1H-cycloprop[cd]indene,octahydro-","Martin, Heller, et al., 1974"
 768-46-7,, C,8.02,PE,"Tricyclo[3.3.2.0(2,8)]deca-3,6-diene","Bischof, Gleiter, et al., 1970"
 66929-89-3,Vertical value, C,8.90 ¡À 0.05,PE,Tricyclo[4.2.1.0,"Martin, Heller, et al., 1977"
 30353-70-9,Vertical value; , C,7.74,PE,"Dispiro[2.0.2.4]deca-7,9-diene","deMeijere, 1974"
 54440-40-3,LBLHLM, C,8.3,PE,"Dispiro[2.0.2.4]deca-1,5-diene","Spanget-Larsen, de Korswagen, et al., 1982"
 935-00-2,LBLHLM, C,8.48,EI,"Benzene, 2-butenyl-, trans","Dass and Gross, 1985"
 37707-19-0,Vertical value, C,8.8,PE,Tricyclo[4.2.2.0,"Bruckmann and Klessinger, 1972"
 30358-36-2,Vertical value; , C,8.83 ¡À 0.03,PE,Tetracyclo[5.2.1.0,"Martin, Kagabu, et al., 1974"
 41375-72-8,, C,8.16 ¡À 0.02,EI,Manganese technetium decacarbonyl,"Michels and Svec, 1981"
 37685-62-4,, C,8.3 ¡À 0.1,EI,"Cobalt,hexacarbonyl[¦Ì-[(2,3-¦Ç:2,3-¦Ç)-1,4-dichloro-2-butyne]]di-,(co-co)","Gambino, Vaglio, et al., 1974"
 62244-56-8,, C,7.55,EI,"Benzenamine,4-(fluorodimethylsilyl)-N,N-dimethyl-","Gey and Dube, 1976"
 704-01-8,LLK, C,7.1,PE,"1,2-Benzenediamine, N,N,N',N'-tetramethyl-","Nelsen, Grezzo, et al., 1981"
 12116-44-8,LLK, C,7.32,CTS,(¦Ç,"Kobayashi, Kobayashi, et al., 1973"
 12083-24-8,LLK, C,6.6 ¡À 0.2,EI,(Methylbenzene)tricarbonylchromium,"Davis, Ojo, et al., 1978"
 12125-72-3,LLK, C,6.9 ¡À 0.2,EI,"Chromium, tricarbonyl[(1,2,3,4,5,6-¦Ç)-1,3,5-cycloheptatriene]-","Davis, Ojo, et al., 1978"
 117-80-6,LLK, C,9.5,PE,Dichlone,"Redchenko, Freimanis, et al., 1980"
 12116-45-9,, C,6.9 ¡À 0.1,EI,"Chromium,[(1,2,3,4,5,6-¦Ç)-benzenemethanol]tricarbonyl-","Gilbert, Leach, et al., 1973"
 100-22-1,LLK, C,6.1 ¡À 0.1,PE,"1,4-Benzenediamine, N,N,N',N'-tetramethyl-","Egdell, Green, et al., 1975"
 20615-04-7,Vertical value, C,8.32,PE,"Cyclopentanone, cyclopentylidenehydrazone","Kirste, Poppek, et al., 1984"
 3102-87-2,, C,6.43,PI,"2,3,5,6-Tetramethyl-para-phenylenediamine","Pykhtina, Cherednichenko, et al., 1974"
 72282-73-6,Vertical value, C,7.07,PE,"1,4-Ethanopyridazino[1,2-a]pyridazine,1,4,6,7,8,9-hexahydro-","Nelsen, Hollinsed, et al., 1979"
 37882-93-2,Vertical value, C,7.73,PE,"6H,13H-Dipyridazino[1,2-a:1',2'-d][1,2,4,5-tetrazine,1,4,8,11-tetrahydro-","Katritzky, Baker, et al., 1980"
 105090-34-4,, C,6.20 ¡À 0.05,EQ,"1,6-Diazatetracyclo[4.3.27,9.12,5]dodecane","Rumack, 1986"
 33306-55-7,, C,7.38 ¡À 0.05,PI,"Ferrocene, 1,1',2,2',3,3'-hexachloro-","Barfuss, Emrich, et al., 1990"
 64914-28-9,Vertical value, C,7.42,PI,"Chromium,pentacarbonyl(4-chloropyridine)-","Weiner, Gin, et al., 1977"
 1911-01-9, , C,¡Ü5.41,PI,"Imidazolidine,2-(1,3-dimethyl-2-imidazolidinylidene)-1,3-dimethyl-","Nakato, Ozaki, et al., 1972"
 54338-54-4,, C,7.87 ¡À 0.05,PE,"Plumbane,trimethyl(phenylmethyl)-","Distefano, Pignataro, et al., 1974"
 5767-20-4,Vertical value, C,7.46,PE,"6H,13H-Dipyridazino(1,2-a:1',2'-d)-s-tetrazine, octahydro-","Rademacher, Breier, et al., 1979"
 51481-61-9,LLK, C,7.7,PE,Cimetidine,"Klasinc, Butkovic, et al., 1980"
 59163-57-4,Vertical value, C,¡Ü8.02,PE,"Plumbane,trimethyl[4-(methylthio)phenyl]-","Colonna, Danieli, et al., 1976"
 1199-66-2,Vertical value, C,7.3,PE,"Benzenamine,4-(dimethylphosphino)-N,N-dimethyl-","Kaim and Bock, 1978"
 143970-61-0, , C,6.5,PE,"1,3-Di-tert-butyl-1,3,2-diazagermol-2-ylidene","Arduengo, Bock, et al., 1994"
 154030-95-2, , C,6.7,PE,"1,3-Di-tert-butyl-1,3,2-diazasilol-2-ylidene","Arduengo, Bock, et al., 1994"
 6130-94-5,LBLHLM, C,6.77 ¡À 0.05,EQ,"1,1'-Bipiperidine","Rumack, 1986"
 59660-96-7,Vertical value, C,9.42,PE,"Alanine, N-chloro-2-methyl-, hexyl ester","Gerson, Worley, et al., 1978"
 2940-98-9,Vertical value; , C,8.64,PE,"3,3,7,7-Tetramethyl-1,5-diazabicyclo[3.3.0]octane","Nelsen, 1984"
 42842-99-9,Vertical value; , C,8.32,PE,"2,3-Diazabicyclo[2.2.1]heptane,2-(1,1-dimethylethyl)-3-methyl-","Nelsen, 1984"
 88885-89-6, , C,6.8,PE,"1,6-Diazabicyclo[4.4.2]dodecane","Honegger, Yang, et al., 1985"
 30834-74-3, , C,8.5,PE,"1,2-Bis(tert-butylimino)ethane","Louwen, Stufkens, et al., 1984"
 60678-79-7,Vertical value; , C,~8.54,PE,"9-Azabicyclo[3.3.1]nonan-9-amine,N,N-dimethyl-","Nelsen, 1984"
 100098-22-4, , C,7.2,PE,"1,8-Diazabicyclo[6.3.1]dodecane","Honegger, Yang, et al., 1985"
 59498-94-1,Vertical value; , C,8.16,PE,"2,3-Diazabicyclo[2.2.2]octane, 1,2,3,4-tetramethyl-","Nelsen, 1984"
 53779-86-5,Vertical value, C,7.43,PE,"2,3-Diazabicyclo[2.2.2]octane,1,2,3,4-tetramethyl-,trans-","Nelsen and Buschek, 1974"
 60678-75-3,Vertical value; , C,8.12,PE,"1H-Azepine, hexahydro-1-(pyrrolidinyl-)","Nelsen, 1984"
 58279-48-4,, C,7.95,PE,"Butane-2,3-diimine, N,N'-diisopropyl-","tom Dieck, Franz, et al., 1975"
 84904-97-2, , C,6.6,PE,"1,7-Diazabicyclo[5.3.2]dodecane","Honegger, Yang, et al., 1985"
 872-05-9,LLK, C,9.48,EI,1-Decene,"Holmes, Fingas, et al., 1981"
 63366-67-6,Vertical value, C,8.53,PE,"1-Azabicyclo[3.3.1]nonane,1-dimethylboryl-","Nelsen, Kessel, et al., 1980"
 1678-93-9,LBLHLM, C,9.41,EQ,"Cyclohexane, butyl-","Sieck and Mautner(Meot-Ner), 1982"
 20348-51-0,LLK, C,8.899 ¡À 0.010,PI,"2-Decene, (Z)-","Rang, Martinson, et al., 1974"
 19398-89-1,LLK, C,8.782 ¡À 0.004,PI,trans-4-Decene,"Rang, Martinson, et al., 1974"
 7433-56-9,LLK, C,8.762 ¡À 0.012,PI,"5-Decene, (E)-","Rang, Martinson, et al., 1974"
 19150-21-1,LLK, C,9.00 ¡À 0.01,PE,trans-3-Decene,"Krause, Taylor, et al., 1978"
 3741-00-2,LLK, C,9.91 ¡À 0.05,PE,"Cyclopentane, pentyl-","Rang, Paldoia, et al., 1974"
 1678-82-6,, C,9.32,EQ,"Cyclohexane, 1-methyl-4-(1-methylethyl)-, trans-","Sieck and Mautner(Meot-Ner), 1982"
 293-96-9,LLK, C,9.6,PE,Cyclodecane,"Bieri, Burger, et al., 1977"
 19398-88-0,LLK, C,8.784 ¡À 0.004,PI,cis-4-Decene,"Rang, Martinson, et al., 1974"
 1678-98-4,LLK, C,9.54 ¡À 0.03,PE,"Cyclohexane, (2-methylpropyl)-","Rang, Paldoia, et al., 1974"
 7433-78-5,LLK, C,8.773 ¡À 0.006,PI,(Z)-5-Decene,"Rang, Martinson, et al., 1974"
 19398-86-8,LLK, C,8.832 ¡À 0.009,PI,cis-3-Decene,"Rang, Martinson, et al., 1974"
 20063-97-2,LLK, C,8.903 ¡À 0.005,PI,"2-Decene, (E)-","Rang, Martinson, et al., 1974"
 692-48-8,LLK, C,8.741 ¡À 0.008,PE,"trans-1,2-di-tert-butylethylene","Masclet, Grosjean, et al., 1973"
 7058-01-7,LBLHLM, C,9.23,EQ,"Cyclohexane, (1-methylpropyl)-","Sieck and Mautner(Meot-Ner), 1982"
 99-82-1,, C,9.32,EQ,1-Methyl-4-(1-methylethyl)-cyclohexane,"Sieck and Mautner(Meot-Ner), 1982"
 692-47-7,LLK, C,8.695 ¡À 0.010,PE,"3-Hexene, 2,2,5,5-tetramethyl-, (Z)-","Masclet, Grosjean, et al., 1973"
 19781-18-1,LLK, C,8.132 ¡À 0.005,PE,"2,3-Dimethyl-2-octene","Masclet, Grosjean, et al., 1973"
 19780-61-1,LLK, C,8.101 ¡À 0.005,PE,2-Methyl-3-ethyl-2-heptene,"Masclet, Grosjean, et al., 1973"
 5857-68-1,LLK, C,8.795 ¡À 0.008,PE,"1-Butene, 2-(1,1-dimethylethyl)-3,3-dimethyl-","Masclet, Grosjean, et al., 1973"
 33175-59-6,LLK, C,8.097 ¡À 0.005,PE,"2-Hexene, 2,3,5,5-tetramethyl-","Masclet, Grosjean, et al., 1973"
 80-56-8,, C,8.07,PE,¦Á-Pinene,"Al-Joboury and Turner, 1964"
 138-86-3,, C,8.3,EI,Limonene,"Harris, McKinnon, et al., 1979"
 17113-79-0,Vertical value, C,7.87 ¡À 0.05,PE,"Stannane,trimethyl[4-(methylthio)phenyl]-","Colonna, Danieli, et al., 1976"
 59163-59-6,Vertical value, C,7.74 ¡À 0.05,PE,"Stannane,trimethyl[(phenylthio)methyl]-","Colonna, Danieli, et al., 1976"
 12125-77-8,Vertical value; , C,7.44,PE,"Molybdenum,tricarbonyl[(1,2,3,4,5,6-¦Ç)-1,3,5-cycloheptatriene]-","Fragala, Ciliberto, et al., 1979"
 62244-47-7,, C,8.97,EI,"Silane,methoxydimethyl(3-methylphenyl)-","Gey and Dube, 1976"
 877-68-9, , C,8.03,CTS,"Silane, (4-methoxyphenyl)trimethyl-","Pitt, Carey, et al., 1972"
 68364-22-7,Vertical value; , C,8.06,PE,"Bicyclo[2.2.1]hepta-2,5-diene, 2-trimethyl siloxy-","Houk, Rondan, et al., 1983"
 51501-87-2,, C,9.09,EI,"Silane,methoxydimethyl(4-methylphenyl)-","Gey and Dube, 1976"
 76-22-2,RDSH, C,8.76 ¡À 0.03,PI,Camphor,"Vilesov, 1960"
 512-85-6, , C,8.07,PE,Ascaridole,"Brown, 1975"
 2800-87-5,Vertical value, C,8.75,PE,"4,5-Thiepanedione, 3,3,6,6-tetramethyl-","Dougherty, Brint, et al., 1978"
 72447-67-7,Vertical value; , C,8.55,PE,"4,8,9-Trithiabicyclo[5.2.0]non-1(7)ene, 2,2,6,6-tetramethyl-4,4-oxide","Jian-qi, Mohraz, et al., 1983"
 72447-65-5,Vertical value; , C,9.75,PE,"Thiepin, 4,5-didehydro-2,3,6,7-tetrahydro-3,3,6,6-tetramethyl-1,1-oxide","Jian-qi, Mohraz, et al., 1983"
 62244-48-8,, C,8.62,EI,"Silane,methoxy(4-methoxyphenyl)dimethyl-","Gey and Dube, 1976"
 20651-89-2,Vertical value, C,8.70 ¡À 0.05,PE,"1,2-Cyclohexanedione, 3,3,6,6-tetramethyl-","Verheijdt and Cerfontain, 1982"
 7076-82-6,, C,8.9 ¡À 0.1,EI,Tricyclo[3.2.1.0,"Brion, Farmer, et al., 1970"
 14224-85-2,, C,8.7 ¡À 0.1,EI,Tricyclo[3.2.1.0,"Brion, Farmer, et al., 1970"
 6267-39-6,Vertical value; , C,8.87,PE,"2-Cyclohexen-1-one, 3-ethoxy-5,5-dimethyl-","Pfister-Guillouzo, Geribaldi, et al., 1982"
 702-50-1,, C,9.04 ¡À 0.05,PE,"1,3-Cyclohexanedione, 2,2,5,5-tetramethyl-","Houk, Davis, et al., 1973"
 37435-26-0,, C,9.1 ¡À 0.1,PE,"1,3-Cyclohexanedione,2-(1,1-dimethylethyl)-","Houk, Davis, et al., 1973"
 59880-82-9,Vertical value, C,9.24,PE,"Bicyclo[2.2.2]oct-2-ene,1,4-dimethoxy-","Brown, 1976"
 60681-10-9,Vertical value, C,9.29,PE,"1,3-Cyclohexanedione,4,4,6,6-tetramethyl-","Gleiter, Hofmann, et al., 1980"
 16754-50-0,Vertical value, C,9.80 ¡À 0.07,PE,"1-Propene, 3,3',3''-[methylidynetris(oxy)]tris-","Gan, Peel, et al., 1977"
 42031-65-2,Vertical value, C,8.9,PE,"4,5-Oxepanedione, 3,3,6,6-tetramethyl-","Dougherty, Brint, et al., 1978"
 52735-49-6,LBLHLM, C,8.2,PE,"3-Ethylthio-5,5-dimethyl-cyclohex-2-enone","Pfister-Guillouzo, Geribaldi, et al., 1982"
 768-95-6,LLK, C,9.09 ¡À 0.05,PE,1-Adamantanol,"Worley, Mateescu, et al., 1973"
 700-57-2,LLK, C,9.09 ¡À 0.07,PE,Adamantan-2-ol,"Worley, Mateescu, et al., 1973"
 89922-54-3, , C,6.8,PE,"Manganese, (¦Ç","Green, Paz-Sandoval, et al., 1985"
 1195-79-5,LLK, C,8.5,PE,Fenchone,"Frost, Westwood, et al., 1980"
 4176-04-9,, C,9.74,EI,"Bicyclo[4.1.0]heptan-3-one, 4,7,7-trimethyl-, [1R-(1¦Á,4¦Á,6¦Á)]-","Bunau, Schade, et al., 1967"
 10498-57-4,Vertical value, C,8.2,PE,"Phosphine,1,4-phenylenebis[dimethyl-","Kaim and Bock, 1978"
 4314-94-7,LLK, C,8.08 ¡À 0.05,PE,"Stannane, trimethyl(phenylmethyl)-","Distefano, Pignataro, et al., 1974"
 2848-62-6,LLK, C,8.36 ¡À 0.05,PE,"Germane, trimethyl(phenylmethyl)-","Distefano, Pignataro, et al., 1974"
 34301-54-7,LLK, C,8.6,PE,1-Adamantanethiol,"Jorgensen and Snyder, 1980"
 72447-66-6,Vertical value, C,8.15,PE,"3',3',6',6'-Tetramethyl-1'-thia-cyclohepteno[4',5'-c]-1,2-dithiete","Jian-qi, Mohraz, et al., 1983"
 59163-56-3,Vertical value, C,7.90 ¡À 0.05,PE,"Germane,trimethyl[4-(methylthio)phenyl]-","Colonna, Danieli, et al., 1976"
 77471-73-9,LLK, C,8.26,PE,8-Methylene-trans-3-thiabicyclo[4.4.0]decane,"Sarneel, Worrell, et al., 1980"