CAS,Comment,Formula,IE,Method,Name,Refer
 79440-50-9,LLK, C,7.2,PE,"Benzeneethanamine,2,4-dimethoxy-¦Á,5-dimethyl-","Domelsmith, Eaton, et al., 1981"
 22199-16-2,Vertical value; , C,7.76 ¡À 0.06,PE,"Benzenethanamine, 2,4,6-trimethoxy-¦Á-methyl-(.+/-.)-","Domelsmith and Houk, 1978"
 4746-32-1,, C,7.5,CTS,N-Hexylaniline,"Briegleb and Czekalla, 1959"
 4098-98-0,RDSH, C,7.41 ¡À 0.01,EI,Tetrakil(trimethylsilyl)silane,"Pitt, Bursey, et al., 1970"
 27774-16-9,, C,7.85,EI,Tri-n-butylphosphineiron dinitrosyl bromide,"Pignataro, Distefano, et al., 1970"
 28308-02-3,, C,7.9,EI,Tri-n-butylphosphinecobalt dinitrosyl bromide,"Pignataro, Distefano, et al., 1970"
 59777-83-2,Vertical value, C,10.66,PE,"1-Butanamine, N,N-dibutyl-, compound with bromine(1:1)","Utsunomiya, Kobayashi, et al., 1976"
 12408-16-1,, C,8.02,PE,"Phosphorothioic acid, o,o',o''-tributyl ester","Zverev, Vilesov, et al., 1975"
 102-85-2,, C,8.44 ¡À 0.05,EI,"Phosphorous acid, tributyl ester","Distefano, Innorta, et al., 1968"
 5981-17-9, , C,7.8,PE,"Dodecahydrotripyrrolo[1,2-a:1',2'-c:1"",2""-e][1,3,5]triazine","Beck, Hunig, et al., 1986"
 6321-40-0,LLK, C,7.8,PE,Tris(2-methylallyl)amine,"Aue and Bowers, 1979"
 65115-73-3,LBLHLM, C,7.3,PE,"5,5-Dimethyl-3-(diethylamino)-cyclohex-2-en-1-one","Pfister-Guillouzo, Geribaldi, et al., 1982"
 82663-49-8,Vertical value; , C,7.98,PE,"5,5-Dimethyl-3-i-butylamino-cyclohex-2-en-1-one","Pfister-Guillouzo, Geribaldi, et al., 1982"
 23458-49-3,Vertical value, C,8.63,PE,"Cyclobutanone,3-(butylimino)-2,2,4,4-tetramethyl-","Behan, Johnstone, et al., 1977"
 97877-72-0,Vertical value, C,7.76,PE,"9-Azabicyclo[3.3.1]nonan-3-one, 9-tert-butyl-","Nelsen, Kessel, et al., 1980"
 95734-77-3, , C,5.4,PE,"Zinc, ethyl 1,4-di-tert-butyl-1,4-diazabutadiene","Louwen, Stufkens, et al., 1984"
 73322-99-3,Vertical value, C,7.39,PE,"Hexyl,1,1,5-trimethyl-5-[(1-methylethyl)azo]-","Nelsen, Kessel, et al., 1980"
 4422-06-4,LLK, C,8.99 ¡À 0.03,PI,¦Á-Ketocyclododecanone oxime,"Golubitskii, Kulikov, et al., 1979"
 27336-61-4,Vertical value; , C,7.69,PE,"5,5-Dimethyl-3-t-butylamino-cyclohex-2-en-1-one","Pfister-Guillouzo, Geribaldi, et al., 1982"
 27774-18-1,, C,7.7,EI,Tri-n-butylphosphinecobalt dinitrosyl iodide,"Pignataro, Distefano, et al., 1970"
 10556-98-6, , C,7.5,PE,"1,3,5-Triazine, hexahydro-1,3,5-tris(1-methylethyl)-","Beck, Hunig, et al., 1986"
 4438-47-5,Vertical value, C,7.66,PE,"4-Aza-2,6-disilaheptane, 2,2,6,6-tetramethyl-4-[(trimethylsilyl)methyl]-","Bock, Kaim, et al., 1979"
 688-74-4,RDSH, C,10.72 ¡À 0.74,EI,Tributyl borate,"Fallon, Kelly, et al., 1968"
 112299-51-1, , C,9.3,PE,"Triethylamine, 2,2',2""-triethoxy-","Brodskaya, Voronkov, et al., 1987"
 102-82-9,LBLHLM, C,7.4,PE,Tributylamine,"Elbel, Dieck, et al., 1982"
 4104-81-8,Vertical value, C,8.33 ¡À 0.05,PE,"Silanamine, 1,1,1-trimethyl-N-(trimethylsilyl)-, mercury(2+) salt","Harris, Lappert, et al., 1976"
 61695-12-3, , C,7.5,PE,"Triphosphirane, tris(1,1-dimethylethyl)-","Gleiter, Bohm, et al., 1981"
 13716-12-6,Vertical value, C,7.7,PE,"tris(1,1-dimethylethyl)phosphine","Lappert, Pedley, et al., 1975"
 998-40-3,LLK, C,7.5,PE,"Phosphine, tributyl-","Schmidt, Schweig, et al., 1975"
 28069-69-4,Vertical value, C,5.6,PE,Tetrakis(trimethylphosphine)nickel,"Avent, Cloke, et al., 1988"
 55290-25-0,Vertical value, C,7.71 ¡À 0.05,PE,"Germanium, bis[bis(trimethylsilyl)]amino-","Harris, Lappert, et al., 1976"
 51956-20-8,Vertical value; , C,6.74,PE,Dimolybdenum hexakis(dimethylamide),"Bursten, Cotton, et al., 1980"
 32370-44-8,Vertical value, C,7.25,PE,"Chromium,(aminophenylmethylene)pentacarbonyl-(oc-6-21)-","Block and Fenske, 1977"
 64914-29-0,Vertical value, C,7.5,PI,"Chromium,pentacarbonyl[1-(4-pyridinyl)ethanone-N]-","Weiner, Gin, et al., 1977"
 64504-69-4,Vertical value, C,7.9,PE,"4H-Dithieno[2,3-c:3',2'-e]azepine,5-ethyl-5,6-dihydro-","Meunier and Pfister-Guillouzo, 1977"
 15696-40-9,LBLHLM, C,7.8,PE,"Osmium, dodecacarbonyltri-, triangulo","Sherwood and Hall, 1982"
 1800-40-4,, C,8,CTS,2-Fluorophenoxathiin,"Hillebrand, Maior, et al., 1969"
 2876-33-7,Vertical value, C,8.46,PE,"Phenazine, 2-nitro-, 10-oxide","Albini and Mark, 1976"
 81-83-4,Vertical value, C,8.68 ¡À 0.05,PE,"1H-Benz[de]isoquinoline-1,3(2H)-dione","Bigotto, Galasso, et al., 1979"
 829-85-6,LLK, C,7.80 ¡À 0.01,PE,"Phosphine, diphenyl-","Debies and Rabalais, 1974"
 63340-07-8,Vertical value, C,8.64,PE,"Benzene,1-chloro-4-[1-(1-methylethyl)cyclopropyl]-","Prins, Verhoeven, et al., 1977"
 118-12-7,, C,6.98,PE,"1H-Indole, 2,3-dihydro-1,3,3-trimethyl-2-methylene-","Quast, Ach, et al., 1993"
 776-75-0,, C,8.8,EI,1-Benzoylpiperidine,"Schwarz and Bohlmann, 1973"
 113035-25-9,Vertical value, C,7.2,PE,"2-Azapentalene, 1,3-bis(dimethylamino)-5-carboxaldehyde-","Eckert-Maksic, Gleiter, et al., 1988"
 53883-47-9, , C,8.4,PE,"2,8,9-Trioxa-5-aza-1-silabicyclo[3.3.3]undecan-3-one, 1-phenyl-","Peel and Dianxum, 1988"
 13904-58-0,Vertical value, C,8,PE,"1H-Phosphole,2,5-dimethyl-1-phenyl-","Schafer, Schweig, et al., 1973"
 479-59-4,, C,6.65 ¡À 0.02,PE,Julolidine,"Maier and Turner, 1973"
 2436-85-3,Vertical value, C,7.12,PE,"N,N-Dimethyl-¦Â-naphthylamine","Utsunomiya, Kobayashi, et al., 1975"
 86-56-6, , C,7.00 ¡À 0.02,PE,"1-Naphthalenamine, N,N-dimethyl-","Maier, 1974"
 15243-33-1,Vertical value; , C,7.5,PE,Tri-ruthenium dodecacarbonyl,"Green, Mingos, et al., 1981"
 537-65-5,, C,6.2,PI,"4,4'-iminodianiline","Pykhtina, Cherednichenko, et al., 1974"
 20637-03-0,, C,9.3 ¡À 0.2,EI,4-(4-Cyanophenyl)butanoic acid methyl ester,"Howe, Williams, et al., 1969"
 61066-82-8,, C,9.2 ¡À 0.2,EI,3-(4-Cyanophenyl)butanoic acid methyl ester,"Howe, Williams, et al., 1969"
 56519-51-8,, C,8.82,EI,"2,4-Azetidinedione,3-ethyl-1-methyl-3-phenyl-","Compernolle and DeSchryver, 1975"
 50838-24-9,, C,8.4,EI,"Pyridine,1-benzoyl-1,2,3,4-tetrahydro-","Schwarz and Bohlmann, 1973"
 73650-94-9,, C,7.22,PE,13-Oxa-14-azatricyclo[8.2.1.1,"Kovac, Allan, et al., 1980"
 30611-20-2,Vertical value, C,9.57,PE,"Benzonitrile,4-(1-oxopentyl)-","Koenig, Wielesek, et al., 1977"
 57015-32-4,LBLHLM, C,7.3,PE,"Cyclohepta[c]pyrrol-6(2H)-one, 1,2,3-trimethyl-","Gleiter, Bischof, et al., 1984"
 73463-62-4, , C,7.9,PE,"Trirhenium, dodecacarbonyl trihydride","Green, Mingos, et al., 1981"
 18444-56-9,, C,7.9,PE,"Manganese, dodecacarbonyltrihydrotri-, triangulo","Wong, Dutta, et al., 1981"
 15612-93-8,, C,8.03,EI,Isocyanobenzenetungsten pentacarbonyl,"Pignataro, Foffani, et al., 1968"
 36834-85-2, , C,8.1,PE,"Cobalt, nonacarbonyl[¦Ì3-(methoxyoxoethylidyne)]tri-, triangulo","Granozzi, Tondello, et al., 1982"
 80642-45-1,, C,7.88,EI,Isocyanobenzenemolybdenum pentacarbonyl,"Pignataro, Foffani, et al., 1968"
 86-74-8,LLK, C,7.57 ¡À 0.03,PI,Carbazole,"Potapov, Kardash, et al., 1972"
 519-61-9,Vertical value, C,5.87,PE,"Pyrido[2,1,6-de]quinolizine","Palmer, Leaver, et al., 1977"
 1844-54-8,Vertical value, C,7.73,PE,"Imidazo[1,2-b]pyridazine,2-phenyl-","Kovac, Klasinc, et al., 1980"
 37790-23-1,Vertical value, C,9.05 ¡À 0.05,PE,"Diazene,(nitrophenyl)phenyl-(E)-","Millefiori, Millefiori, et al., 1979"
 36252-39-8,, C,7.43 ¡À 0.05,EI,"Pentacarbonyl(2,6-dimethylpyridine)tungsten","Distefano, Foffani, et al., 1971"
 5424-19-1,LLK, C,9.6 ¡À 0.1,EI,Phenyl 3-pyridyl ketone,"Grutzmacher and Schubert, 1979"
 36953-64-7,, C,7.29,EI,"5H-Indeno[1,2-a]pyridine-5-one","Schubert and Grutzmacher, 1980"
 14548-46-0,LLK, C,9.6 ¡À 0.1,EI,Phenyl 4-pyridyl ketone,"Grutzmacher and Schubert, 1979"
 91-02-1,, C,9.06,EI,"Methanone, phenyl-2-pyridinyl-","Schubert and Grutzmacher, 1980"
 92-84-2,LLK, C,6.74 ¡À 0.07,CTS,Phenothiazine,"Poltorakov, Pirnazarova, et al., 1973"
 71906-57-5,Vertical value; , C,8.77 ¡À 0.05,PE,"1,4-Dihydro-1,4-methanonaphthalene-2-carbonitrile","Paguette, Ku, et al., 1979"
 16513-60-3,Vertical value; , C,8.85 ¡À 0.05,PE,"1,4-Dihydro-1,4-methanonaphthalene-6-carbonitrile","Paguette, Ku, et al., 1979"
 61346-79-0,Vertical value; , C,8.94 ¡À 0.05,PE,"1,4-Dihydro-1,4-methanonaphthalene-5-carbonitrile","Paguette, Ku, et al., 1979"
 12203-33-7, , C,7.4,PE,"Manganese, tricarbonyl[(1,2,3,3a,7a-¦Ç)-1H-inden-1-yl]-","Crossley, Green, et al., 1989"
 14049-86-6,, C,7.48 ¡À 0.03,PE,"Manganese, benzylpentacarbonyl-","Simoes, Schultz, et al., 1985"
 92687-89-3,, C,9,PE,11-Chloromethylene pentacyclo[5.4.0.0,"Marchand, Kaya, et al., 1984"
 13343-26-5,, C,8.07,CTS,p-Chlorodiphenyl sulfide,"Aloisi, Santini, et al., 1974"
 38700-88-8,, C,8.16,CTS,"Benzene, 1-chloro-3-(phenylthio)-","Aloisi, Santini, et al., 1974"
 69645-14-3,Vertical value, C,8.3,PE,"2-Cyclopropene-1-carboxylic acid, 2-methyl-3-(4-chlorophenyl)-, methyl ester","Baidin, Domnin, et al., 1984"
 1019-15-4,Vertical value, C,8.16,PE,"Phenazine,2-chloro-10-oxide","Albini and Mark, 1976"
 1211-09-2,Vertical value, C,8.2,PE,"Phenazine, 2-chloro-, 5-oxide","Albini and Mark, 1976"
 2113-51-1,, C,8.20 ¡À 0.02,PE,"1,1'-Biphenyl, 2-iodo-","Maier and Turner, 1972"
 829-83-4,, C,7.87 ¡À 0.01,PE,diphenylarsine,"Debies and Rabalais, 1974"
 6141-95-3,Vertical value, C,8.55 ¡À 0.05,PE,"Diazene, (4-chlorophenyl)phenyl-, (E)-","Millefiori, Millefiori, et al., 1979"
 31599-79-8,LLK, C,9.25,PE,"2-Chloromethyl,3-methyl naphthoquinone","Redchenko, Freimanis, et al., 1980"
 19706-05-9,, C,7.62,EI,Isocyanocyclohexanechromium pentacarbonyl,"Pignataro, Foffani, et al., 1968"
 2051-62-9,, C,8.10 ¡À 0.02,PE,"1,1'-Biphenyl, 4-chloro-","Maier and Turner, 1972"
 2051-60-7,, C,8.20 ¡À 0.02,PE,"1,1'-Biphenyl, 2-chloro-","Maier and Turner, 1972"
 15603-76-6,, C,7.72,EI,Isocyanocyclobexanemolybdenum pentacarbonyl,"Pignataro, Foffani, et al., 1968"
 324-74-3,LLK, C,8.00 ¡À 0.02,PE,"1,1'-Biphenyl, 4-fluoro-","Maier and Turner, 1972"
 321-60-8,LLK, C,8.20 ¡À 0.02,PE,"1,1'-Biphenyl, 2-fluoro-","Maier and Turner, 1972"
 81547-14-0,, C,8.15 ¡À 0.10,EI,"as-Triazino[6,5-c]quinoline, 2-dimethylamino-","Vekey, Tamas, et al., 1985"
 72247-96-2,Vertical value, C,8.51,PE,"Benzo[g]pteridine-2,4(3H,10H)-dione,3,10-dimethyl-7-fluoro-","Eweg, Muller, et al., 1980"
 122-39-4,LLK, C,7.18 ¡À 0.01,PE,Diphenylamine,"Debies and Rabalais, 1974"
 92-67-1,, C,7.5 ¡À 0.1,CTS,"[1,1'-Biphenyl]-4-amine","Farrell and Newton, 1966"
 90-41-5,LLK, C,7.28 ¡À 0.02,PE,2-Aminobiphenyl,"Maier and Turner, 1972"
 15603-77-7,, C,7.75,EI,Isocyanocyclohexanetungsten pentacarbonyl,"Pignataro, Foffani, et al., 1968"
 95642-51-6,Vertical value, C,8.28,PE,"1,3-Thiazine-6-one-4-ol, 2-(3,4-dimethoxyphenyl)-","Yakovlev, Mironova, et al., 1987"
 37496-06-3,, C,8.7 ¡À 0.1,EI,"Methanone,(1-methyl-1H-pyrrol-2-yl)phenyl-","Grutzmacher and Schubert, 1979"
 20551-10-4,, C,6.41,CTS,"Perimidine, 2-amino-1-methyl-","Pozharskii, Kashparov, et al., 1971"
 2826-28-0, , C,7.6,PE,"Benzene, 1-dimethylamino-4-(2,2-dicyanoethenyl)","Katrib, El-Issa, et al., 1986"
 25548-34-9,Vertical value, C,7.67 ¡À 0.05,PE,"Benzenamine,4-(phenylazo)-(E)-","Millefiori, Millefiori, et al., 1979"
 92-66-0,, C,8.05 ¡À 0.02,PE,"1,1'-Biphenyl, 4-bromo-","Maier and Turner, 1972"
 24151-55-1,, C,8.4 ¡À 0.1,EI,"Rhodium, dicarbonyl(1-phenyl-1,3-butanedionato)-","Bonati, Distefano, et al., 1971"
 10230-34-9,, C,7.96,CTS,"Phenoxathiin, 2-chloro-","Hillebrand, Maior, et al., 1969"
 39227-54-8,, C,7.707 ¡À 0.002,LS,"Dibenzo[b,e][1,4]dioxin, 2-chloro-","Zimmermann, Boesl, et al., 1995"
 12153-95-6,, C,6.79 ¡À 0.05,EI,"Dicarbonyl((1,2,3,4,5-)-1-methyl-2,4-cyclopentadiene-1-yl)(tetrahydrothiophene 1-oxide-s)manganese","Distefano, Foffani, et al., 1971"
 12153-94-5,, C,6.45 ¡À 0.05,EI,"Dicarbonyl((1,2,3,4,5)-1-methyl-2,4-cyclopentadien-1-yl)(tetrahydrothiophene)manganese","Distefano, Foffani, et al., 1971"
 32627-01-3, , C,6.55 ¡À 0.02,PE,Dicarbonyl(¦Ç,"Lichtenberger, Calabro, et al., 1984"
 20527-10-0,Vertical value, C,8,PE,"1H-Arsole,2,5-dimethyl-1-phenyl-","Schafer, Schweig, et al., 1973"
 82505-06-4,, C,8.73,PI,"Benzenecarbothioic acid, 4-(1,1-dimethylethyl)-s-(methyl-d3) ester","Takhistov, Misharev, et al., 1995"
 12089-30-4,, C,7.3 ¡À 0.1,EI,Cyclopentadienyl(cyclopentene)manganese dicarbonyl,"Muller and Herberhold, 1968"
 32660-96-1, , C,6.6,PE,"Iridium, dicarbonyl(pentamethyl-¦Ç","Dudeney, Kirchner, et al., 1984"
 12129-77-0, , C,6.6,PE,"Cobalt, dicarbonyl-¦Ç","Lichtenberger, Calabro, et al., 1984"
 4471-18-5,LBLHLM, CBr,7.5 ¡À 0.2,EI,Tribromomethyl radical,"Kime, Driscoll, et al., 1987"
 56593-15-8, , CBr,10.7,PE,"Tribromogermane, trifluoromethyl-","Drake, Gorzelska, et al., 1982"
 353-54-8,LLK, CBr,10.67 ¡À 0.01,PE,"Methane, tribromofluoro-","Chau and McDowell, 1975"
 3644-72-2,, CBrNO,10.46 ¡À 0.01,PE,Bromine isocyanate,"Frost, MacDonald, et al., 1980"
 74213-25-5,, CBrNO,10.05,PE,Bromoformonitrile oxide,"Pasinszki and Westwood, 1995"
 73411-12-8,Vertical value, CBrCl,10.22 ¡À 0.05,PE,"Methane, bromodichloronitroso-","Ernsting, Pfab, et al., 1980"
 75-63-8,LL, CBrF,11.404 ¡À 0.014,PI,Bromotrifluoromethane,"Clay, Walters, et al., 1994"
 29284-59-1,, CBrNS,10.26 ¡À 0.02,PE,Bromine thiocyanate,"Frost, MacDonald, et al., 1981"
 28882-09-9,, CBrF,13. ¡À 1.,DER,Bromodifluoromethyl radical,"Langford and Harris, 1990"
 353-59-3,LBLHLM, CBrClF,11.21 ¡À 0.02,PI,Bromochlorodifluoromethane,"Wang and Leroi, 1983"
 421-11-4,Vertical value, CF,9.89,PE,"Mercury, iodo(trifluoromethyl)-","Wittel, Bock, et al., 1975"
 80039-77-6,Vertical value, CBrNSe,9.99 ¡À 0.02,PE,Selenium bromide cyanide,"Jonkers, Mooyman, et al., 1981"
 461-40-5,Vertical value, CF,11.07,PE,"Mercury, (nitrate-o)(trifluoromethyl)-","Wittel, Bock, et al., 1975"
 51353-52-7,Vertical value, CF,9.87,PE,"Mercury, azido(trifluoromethyl)-","Wittel, Bock, et al., 1975"
 2264-21-3,LL, CF,8.76,IMB,Trifluoromethyl radical,"Tsuji, Aizawa, et al., 1995"
 75-15-0,LL, CS,10.078,TE,Carbon disulfide,"Fischer, Lochschmidt, et al., 1993"
 334-99-6,LLK, CF,10.5 ¡À 0.1,EI,trifluoronitrosomethane,"Syrvatka and Gil'burd, 1973"
 2314-97-8,LBLHLM, CF,10.2,PE,"Methane, trifluoroiodo-","Bancroft, Yates, et al., 1984"
 58355-86-5, , CF,9.5,PE,"1,2,4,3,5-Trithia(4-s","Andreocci, Bossa, et al., 1980"
 1871-24-5,LL, CFO,9.30 ¡À 0.10,DER,Carbonyl fluoride,"Buckley, Johnson, et al., 1995"
 4539-11-1,, CBrF,12. ¡À 1.,DER,"Methylene, bromofluoro-","Langford and Harris, 1990"
 506-68-3,LL, CBrN,12. ¡À 1.,EI,Cyanogen bromide,"Ibuki, Hiraya, et al., 1996"
 75-62-7,LBLHLM, CBrCl,11.05 ¡À 0.02,PI,"Methane, bromotrichloro-","Wang and Leroi, 1983"
 13590-47-1,, CBrCl,10. ¡À 1.,DER,"Methylene, bromochloro-","Langford and Harris, 1990"
 16388-45-7, , CF,8.62,EI,"Iron, carbonyltetrakis(phosphorus trifluoride)-","Muller, Fenderl, et al., 1971"
 3889-75-6,LL, CF,9.4 ¡À 0.4,EI,Fluoromethylidyne,"Tarnovsky and Becker, 1993"
 1495-50-7,LLK, CFN,13.2,PE,Cyanogen fluoride,"Asbrink, Svensson, et al., 1981"
 420-32-6,LBLHLM, CF,10.3,EI,Thiocarbonyl fluoride,"Binnewies, Grosse, et al., 1985"
 82153-75-1, , CFNS,10.76,PE,"Thiocyanate, fluorine","Jonkers, Grabandt, et al., 1982"
 105918-65-8,, CINS,9.75,PE,Iodine thiocyanate,"Leung, Suffolk, et al., 1986"
 15281-98-8,RDSH, C,8.48,EI,Iron tetracarbonyl,"Pignataro and Lossing, 1968"
 3607-48-5,, CINO,9.89 ¡À 0.01,PE,Iodine isocyanate,"Frost, MacDonald, et al., 1980"
 693-85-6,, CF,11.2,PE,"3H-Diazirine, 3,3-difluoro-","Robin, Brundle, et al., 1972"
 14118-40-2, , CF,11.7 ¡À 0.2,EI,Phosphorocyanidous difluoride,"Harland, Rankin, et al., 1974"
 105918-66-9,Vertical value, CINSe,9.79,PE,Iodine selenocyanate,"Leung, Suffolk, et al., 1986"
 506-78-5,RDSH, CIN,10.870 ¡À 0.001,S,Cyanogen iodide,"Myer and Samson, 1970"
 461-60-9,Vertical value, CF,10.2 ¡À 0.1,PE,Phosphor(isothiocyanatidous) difluoride,"Cradock and Rankin, 1972"
 65756-42-5,, CFP,10.57 ¡À 0.01,PE,"Phosphine, (fluoromethylidyne)-","Kroto, Nixon, et al., 1978"
 461-59-6,Vertical value, CF,11.05 ¡À 0.02,PE,Phosphorisocyanatidous difluoride,"Cradock and Rankin, 1972"
 2154-59-8,LL, CF,11.445 ¡À 0.025,PI,"Methylene, difluoro-","Buckley, Johnson, et al., 1995"
 507-25-5,LBLHLM, CI,8.95,PE,"Methane, tetraiodo-","Jonkers, De Lange, et al., 1982"
 14911-55-8,LLK, C,8.4,PE,Iron tetracarbonyl diiodide,"Levenson, Cihonski, et al., 1975"
 54393-39-4,LBLHLM, CF,9.4,EI,CSeF2,"Binnewies, Grosse, et al., 1985"
 353-50-4,LL, CF,13.035 ¡À 0.030,PI,Carbonic difluoride,"Buckley, Johnson, et al., 1995"
 31616-42-9,, C,8.85,EI,"Chromium, tetracarbonylbis(phosphorus trifluoride)-","Muller, Fenderl, et al., 1971"
 43022-36-2,, C,8.3 ¡À 0.1,EI,"Benzaldehyde,2,3,5,6-tetramethyl-4-(methyl-d)-","Schwarz, Bohlmann, et al., 1973"
 6012-97-1,, C,8.8,PE,"Thiophene, tetrachloro-","Veszpremi, Nyulaszi, et al., 1988"
 14239-21-5,, C,9.0 ¡À 0.1,EI,Trichlorosilylcobalt tetracarbonyl,"Saalfeld, McDowell, et al., 1970"
 16388-48-0,, C,8.05 ¡À 0.05,EI,(Phosphorus trichloride)iron tetracarbonyl,"Distefano, Innorta, et al., 1968"
 2892-63-9,LLK, C,9.5,PE,"3-Cyclobuten-1,2-dione, 3,4-dichloro-","Bock, Ried, et al., 1981"
 64771-59-1,LLK, C,9.58 ¡À 0.02,PE,"Mercury, bis(chloroethyn-1-yl)-","Furlani, Piancastelli, et al., 1981"
 51104-87-1,LBLHLM, C,9.25,PE,"1,3-Butadiyne, 1,4-dichloro-","Maier and Thommen, 1984"
 17786-31-1,LBLHLM, C,7.45,PE,Tetracobalt dodecacarbonyl,"DeKock, Wong, et al., 1982"
 14404-25-2,Vertical value, C,8.89 ¡À 0.03,PE,"Rhodium, tetracarbonyldichlorodi-","Dickson, Carnovale, et al., 1979"
 29366-06-1,LL, C,9.49,PI,Isopropyl methyl-d3-ether,"McAdoo, Traeger, et al., 1988"
 93215-63-5,, C,10.8,PIPECO,2-Butynonitrile-d3,"Kuhn, Maier, et al., 1984"
 303-04-8,, C,10.36 ¡À 0.01,PI,"2-Butene, 2,3-dichloro-1,1,1,4,4,4-hexafluoro-","Watanabe, Nakayama, et al., 1962"
 1517-55-1,, C,9.168,S,(E)-2-Butene-d8,"McDiarmid, 1969"
 16104-17-9, , C,8.1,PE,"Manganese, tetracarbonylnitrosyl-","Bursten, Jensen, et al., 1981"
 2036-39-7,, C,8.874 ¡À 0.005,S,Thiophene-d4,"DiLonardo, Galloni, et al., 1972"
 16954-96-4,, C,10.180 ¡À 0.003,S,Butadiyne-d2,"Smith, 1967"
 25294-38-6,, C,9.2,PE,"1,3,3-Butatriene-1,1,4,4-d4","Brogli, Heilbronner, et al., 1974"
 1441-56-1,, C,9.0698,S,"1,3-Butadiene, hexadeutero-, trans-","McDiarmid, 1976"
 2944-05-0,LLK, CS,11.335,EVAL,Carbon monosulfide,"Huber and Herzberg, 1979"
 5951-19-9,, CSSe,9.58,PE,Carbo selenide,"Cradock and Duncan, 1975"
 12547-98-7,, C,7.0 ¡À 0.3,EI,Monoyttrium tetracarbide,"Kohl and Stearns, 1970"
 64539-55-5,, C,8.7 ¡À 0.5,EI,Uranium tetracarbide,"Gupta and Gingerich, 1979"
 19259-11-1,Vertical value; , C,8.27,PE,tetraiodothiophene,"Bozic, Humski, et al., 1977"
 6544-02-1,Vertical value, C,9.73,PE,tetraisothiocyanatosilane,"Veszpremi, Pasinszki, et al., 1991"
 66051-48-7, , C,12,PE,"2-Butynenitrile, 4,4,4-trifluoro-","Asbrink, Svensson, et al., 1981"
 16388-47-9,Vertical value, C,8.75,PE,"Iron, tetracarbonyl(phosphorus trifluoride)-","Head, Nixon, et al., 1978"
 54856-36-9,LLK, C,9.94,PE,Dicyanothioketene,"Schulz and Schweig, 1980"
 4361-47-1,LLK, C,10.56,PE,Dicyanoketene,"Hotzel, Neidlein, et al., 1980"
 58207-38-8,, C,8.3 ¡À 0.1,EI,"Cobalt, tetracarbonyl","Bidinosti and McIntyre, 1967"
 18475-84-8,Vertical value, C,8.68,PE,"Iron, dibromotetracarbonyl-","Levenson, Cihonski, et al., 1975"
 36333-41-2,LBLHLM, C,9.6,PE,Dibromobutadiyne,"Maier and Thommen, 1984"
 98583-30-3,Vertical value, C,9.2,PE,"Azobenzene, 2,2',3,3',5,5',6,6'-octafluoro-4,4'-dibromo-","Petrachenko, Vovna, et al., 1993"
 1071-98-3,LBLHLM, C,11.81 ¡À 0.02,PIPECO,2-Butynedinitrile,"Maier, Misev, et al., 1982"
 17685-52-8,LBLHLM, C,7.44,PE,di-¦Ì-carbonyldecacarbonyl-triangulo-triiron,"DeKock, Wong, et al., 1982"
 3410-77-3,Vertical value, C,11.42,PE,tetraisocyanatosilane,"Veszpremi, Pasinszki, et al., 1991"
 7547-15-1, , C,9.1,PE,"Tetraarsetane, tetrakis(trifluoromethyl)-","Elbel, Egsgaard, et al., 1988"
 360-56-5,Vertical value, C,10.39,PE,"Diarsine, tetrakis(trifluoromethyl)-","Cowley, Dewar, et al., 1974"
 64788-23-4, , C,10.05,PE,"1,3-Butadiyne, 1,4-difluoro-","Bieri, Schmelzer, et al., 1980"
 3958-03-0,Vertical value, C,8.53,PE,"Thiophene, tetrabromo-","Bozic, Humski, et al., 1977"
 118436-72-9,, C,8.6,PE,"1,2,4,6-Thiatriazinyl radical, 3,5-di(trifluoromethyl)-","Boere, Oakley, et al., 1989"
 7627-80-7, , C,11.15,PE,"Pyridazine,tetrafluoro-","Van den Ham, Van der Meer, et al., 1974"