CAS,Comment,Formula,IE,Method,Name,Refer
 108-95-2,LL, C,8.508 ¡À 0.001,PI,Phenol,"Lipert and Colson, 1990"
 611-13-2,LLK, C,9.32 ¡À 0.05,EI,Methyl 2-furoate,"Linda, Marino, et al., 1971"
 40369-62-8, , C,8.4,PE,"1,4,7-Trioxonin","Palmer and Nisbet, 1980"
 88-15-3,, C,9.20 ¡À 0.05,EI,"Ethanone, 1-(2-thienyl)-","Linda, Marino, et al., 1971"
 1468-83-3,LLK, C,9.32 ¡À 0.05,EI,"Ethanone, 1-(3-thienyl)-","Linda, Marino, et al., 1971"
 3161-99-7,LLK, C,9.50 ¡À 0.02,PE,"1,3,5-Hexatriyne","Bieri, Burger, et al., 1977"
 27610-20-4,, C,8.45 ¡À 0.03,EI,Benzenesulfenic acid,"Turecek, Brabec, et al., 1988"
 108-98-5,LL, C,8.3 ¡À 0.05,TRPI,Benzenethiol,"Faulk, Dunbar, et al., 1990"
 2348-49-4,RDSH, C,8.3 ¡À 0.1,EI,Anilino radical,"Palmer and Lossing, 1963"
 51010-00-5,, C,8.40 ¡À 0.15,EI,4-Pyridylmethyl radical,"Palmer and Lossing, 1963"
 61204-14-6,, C,7.9 ¡À 0.1,EI,3-Pyridylmethyl radical,"Palmer and Lossing, 1963"
 540-37-4,LLK, C,7.51,PE,"Benzenamine, 4-iodo-","Behan, Johnstone, et al., 1976"
 52962-96-6,, C,8.2 ¡À 0.1,EI,2-Pyridylmethyl radica1,"Palmer and Lossing, 1963"
 615-36-1,, C,8.45,EI,"Benzenamine, 2-bromo-","Baldwin, Loudon, et al., 1976"
 615-43-0,, C,8.35,EI,"Benzenamine, 2-iodo-","Baldwin, Loudon, et al., 1976"
 106-40-1,, C,7.7 ¡À 0.1,CTS,"Benzenamine, 4-bromo-","Farrell and Newton, 1966"
 645-96-5,LLK, C,7.7,PE,Benzeneselenol,"Baker, Armen, et al., 1981"
 6784-47-0,Vertical value, C,8.6,PE,"2,2-Bi-1,3-dithiolane","Gleiter, Kobayashi, et al., 1975"
 35822-49-2,Vertical value, C,7.48,PE,"1,3-Butadiene, 1,4-bis(methylthio)-, (Z,Z)-","Bock, Wagner, et al., 1972"
 3721-13-9,, C,8.58,EI,"1,3,5,2,4,6-Triazatriphosphorine, 2,4,6-trichloro-2,4,6-tris(dimethylamino)-2,2,4,4,6,6-hexahydro-","Clare and Sowerby, 1981"
 21545-76-6,Vertical value, C,7.86,PE,"Platinum, dichlorobis(trimethylphosphine)-","Behan, Johnstone, et al., 1978"
 592-88-1,, C,8.52 ¡À 0.01,PI,Diallyl sulfide,"Trofimov, Mel'der, et al., 1975"
 50550-56-6,LLK, C,9.22,PE,"Thiacyclohexane, 4-methylene","Sarneel, Worrell, et al., 1980"
 50351-47-8,, C,8.62 ¡À 0.01,PI,"Propane, 1-ethynylthio)-2-methyl","Trofimov, Mel'der, et al., 1975"
 13042-79-0,Vertical value, C,7.95,PE,"2H-Thiopyran,3,4-dihydro-6-methyl-","Batich, Heilbronner, et al., 1976"
 279-59-4,, C,8.28 ¡À 0.04,PE,7-Thiabicyclo[2.2.1]heptane,"Bunzli, Frost, et al., 1973"
 95-51-2,LLK, C,8.5,EI,o-Chloroaniline,"Baldwin, Loudon, et al., 1976"
 106-47-8,RDSH, C,7.8 ¡À 0.1,CTS,p-Chloroaniline,"Farrell and Newton, 1966"
 108-42-9,RDSH, C,8.1 ¡À 0.1,EI,m-Chloroaniline,"Brown, 1970"
 64705-15-3,LLK, C,8.98 ¡À 0.07,PE,"Mercury, bis(propyn-1-yl)-","Furlani, Piancastelli, et al., 1981"
 61332-93-2,, C,6.4 ¡À 0.5,EI,Benzenechromium,"Muller and Goser, 1968"
 10420-90-3,LBLHLM, C,9.2,PE,"1,3-Hexadien-5-yne","Rosenstock, Dannacher, et al., 1982"
 29776-96-3,LLK, C,8.58 ¡À 0.02,PE,"1,2,4,5-Hexatetraene","Bieri, Burger, et al., 1977"
 497-20-1,LLK, C,8.36 ¡À 0.02,PE,Fulvene,"Bieri, Burger, et al., 1977"
 3227-90-5,LLK, C,9.0 ¡À 0.1,S,"Cyclopropane, tris(methylene)-","Dorko, Scheps, et al., 1974"
 71-43-2,LL, C,9.24384 ¡À 0.00006,TE,Benzene,"Nemeth, Selzle, et al., 1993"
 628-16-0,LLK, C,9.93 ¡À 0.05,EI,"1,5-Hexadiyne","Rosenstock, McCulloh, et al., 1977"
 5649-95-6,LLK, C,9.0 ¡À 0.1,PE,"Bicyclo[2.2.0]hexa-2,5-diene","Bieri, Burger, et al., 1977"
 10420-91-4,LBLHLM, C,9.5,PE,"1,4-Hexadiyne","Rosenstock, Dannacher, et al., 1982"
 33142-15-3,LBLHLM, C,9.4,PE,"Hexa-1,2-diene-5-yne","Rosenstock, Dannacher, et al., 1982"
 4447-21-6,LBLHLM, C,9.41,PE,"1,3-Hexadiyne","Rosenstock, Dannacher, et al., 1982"
 659-85-8,LBLHLM, C,8.1,PE,Benzvalene,"Rosenstock, Dannacher, et al., 1982"
 821-08-9,LLK, C,8.50 ¡À 0.02,PE,"1,5-Hexadien-3-yne","Bieri, Burger, et al., 1977"
 5291-90-7,LLK, C,8.80 ¡À 0.02,PE,"3,4-Dimethylenecyclobut-1-ene","Bieri, Burger, et al., 1977"
 12240-88-9,Vertical value, C,7.91,PE,"Platinum, bis(¦Ç","Bohm, Gleiter, et al., 1980"
 12240-87-8, , C,7.24 ¡À 0.03,PE,"Palladium, bis(¦Ç","Lloyd and Lynaugh, 1972"
 12077-85-9, , C,7.33 ¡À 0.04,PE,"Nickel, bis(¦Ç3-2-propenyl)-","Lloyd and Lynaugh, 1972"
 3478-74-8, , C,6.6,PE,"2,3,5,6,7,8-Hexaaza-1,4-diphosphabicyclo[2.2.2]octane, 2,3,5,6,7,8-hexamethyl-","Cowley, Goodman, et al., 1977"
 3741-34-2,Vertical value, C,8.6,PE,"1,3,2-Dioxaphospholane, 2-ethylamino-","Worley, Hargis, et al., 1982"
 6063-72-5,Vertical value, C,8.3,PE,"Phosphine imide, p,p,p-trimethyl-N-(trimethylsilyl)-","Starzewski and Dieck, 1979"
 13436-03-8,Vertical value, C,7.1 ¡À 0.2,PE,"Diazene, bis(trimethylsilyl)-","Bock, Wittel, et al., 1976"
 957-13-1,, C,9.29 ¡À 0.05,EI,Cyclo-tris(dimethoxyphosphonitrile),"Branton, Brion, et al., 1970"
 26163-37-1,LBLHLM, C,6.75 ¡À 0.05,EQ,"Pyridazine hexahydro-1,2-dimethyl-","Rumack, 1986"
 106-58-1,Vertical value, C,8.77,PE,"Piperazine, 1,4-dimethyl-","Nelsen and Buschek, 1974"
 6607-30-3,RDSH, C,8.35 ¡À 0.05,EI,Hexamethylcyclotriphosphazene,"Branton, Brion, et al., 1970"
 7422-73-3,Vertical value; , C,8.45,PE,Tris(dimethylamino)phosphine selenide,"Cowley, Lattman, et al., 1982"
 680-31-9,LBLHLM, C,7.9,PE,Hexamethylphosphoramide,"Worley, Hargis, et al., 1982"
 601-77-4,Vertical value, C,8.58,PE,"2-Propanamine, N-(1-methylethyl)-N-nitroso-","Battiste, Davis, et al., 1975"
 56-87-1,LBLHLM, C,8.6,PE,Lysine,"Cannington and Ham, 1983"
 35216-94-5,Vertical value, C,~9.60 ¡À 0.03,PE,"Diazene, bis(1-methylethyl)-, 1-oxide, (Z)-","Bunzli, Olsen, et al., 1977"
 3732-82-9,Vertical value; , C,8.63 ¡À 0.10,PE,"Phosphorothioic triamide, hexamethyl-","Cowley, Lattman, et al., 1982"
 1608-26-0,LBLHLM, C,6.75,PE,Hexametapil,"Worley, Hargis, et al., 1982"
 15464-00-3,LLK, C,8,PE,"Diisopropyl diazene, trans-","Houk, Chang, et al., 1975"
 55204-42-7,LLK, C,8.1,PE,"Dipropyldiazene, trans","Houk, Chang, et al., 1975"
 53779-90-1,LBLHLM, C,6.59 ¡À 0.05,EQ,"1-Pyrrolidinamine, N,N-dimethyl-","Rumack, 1986"
 137675-05-9,Vertical value, C,8.98,PE,"3,3-Dimethyl-1-isopropyldiaziridine","Klasinc, Mannschreck, et al., 1994"
 815-62-3,Vertical value, C,7.5,PE,"1,1-Ethenediamine, N,N,N',N'-tetramethyl-","Bock, Wagner, et al., 1974"
 23201-84-5,Vertical value; , C,8.24,PE,(Z)-Diisopropyldiazene,"Houk, Chang, et al., 1975"
 15721-33-2,, C,8.80 ¡À 0.02,EI,Bis(isopropyl)beryllium,"Chambers, Coates, et al., 1969"
 15921-42-3,, C,8.71 ¡À 0.06,EI,Bis(n-propyl)beryllium,"Chambers, Coates, et al., 1969"
 10556-96-4,Vertical value, C,8.11,PE,"Pyrimidine,hexahydro-1,3-dimethyl-","Nelsen and Buschek, 1974"
 30681-90-4,LLK, C,8.59 ¡À 0.03,EI,"1,1,2-Trimethyl-1-silacyclobutane","Gusel'nikov, Volkova, et al., 1981"
 2295-13-8,LLK, C,8.67 ¡À 0.03,EI,"1,1,3-Trimethyl-1-silacyclobutane","Gusel'nikov, Volkova, et al., 1981"
 762-72-1,RDSH, C,8.85 ¡À 0.04,EI,"Silane, trimethyl-2-propenyl-","Bock and Seidl, 1968"
 1072-54-4,LLK, C,9.26 ¡À 0.03,EI,"1,1-Dimethyl-1-silacyclopentane","Gusel'nikov, Volkova, et al., 1981"
 110-83-8,LLK, C,8.94,PE,Cyclohexene,"Kimura, Katsumata, et al., 1981"
 3664-56-0,LLK, C,8.7,PE,"1,3,3-Trimethylcyclopropene","Plemenkov, Villem, et al., 1981"
 693-89-0,LLK, C,8.59,EI,"Cyclopentene, 1-methyl-","Lossing and Traeger, 1975"
 1120-62-3,LLK, C,8.95,EI,"Cyclopentene, 3-methyl-","Lossing and Traeger, 1975"
 764-35-2,LLK, C,9.37 ¡À 0.05,EI,2-Hexyne,"Wolkoff, Holmes, et al., 1980"
 513-81-5,LLK, C,8.66 ¡À 0.05,EI,"1,3-Butadiene, 2,3-dimethyl-","Wolkoff, Holmes, et al., 1980"
 1528-30-9,LLK, C,8.70 ¡À 0.05,EI,"Cyclopentane, methylene-","Wolkoff and Holmes, 1979"
 917-92-0,LBLHLM, C,9.86,PI,"1-Butyne, 3,3-dimethyl-","Orlov, Boganov, et al., 1985"
 592-42-7,LLK, C,9.29 ¡À 0.05,EI,"1,5-Hexadiene","Wolkoff, Holmes, et al., 1980"
 3999-39-1,Vertical value, C,9.5,PE,"Pyridine,4-methyl-,compound with borane(1:1)","Weiner and Lattman, 1975"
 693-02-7,LLK, C,9.95 ¡À 0.05,EI,1-Hexyne,"Wolkoff, Holmes, et al., 1980"
 285-58-5,LLK, C,9.28 ¡À 0.05,EI,Bicyclo[3.1.0]hexane,"Wolkoff and Holmes, 1979"
 592-46-1,RDSH, C,8.48 ¡À 0.05,EI,"2,4-Hexadiene","Franklin and Mogenis, 1967"
 926-56-7,LLK, C,8.26 ¡À 0.05,EI,"4-Methyl-1,3-pentadiene","Wolkoff, Holmes, et al., 1980"
 928-49-4,LLK, C,9.34 ¡À 0.05,EI,3-Hexyne,"Wolkoff, Holmes, et al., 1980"
 5685-46-1,LBLHLM, C,8.9,PE,"1,1'-Bicyclopropyl","Spanget-Larsen, Gleiter, et al., 1982"
 3404-63-5,LLK, C,8.81 ¡À 0.05,EI,"1,3-Butadiene, 2-ethyl-","Wolkoff, Holmes, et al., 1980"
 4663-22-3,LLK, C,8.66 ¡À 0.05,EI,Isopropenylcyclopropane,"Wolkoff, Holmes, et al., 1980"
 81382-22-1, , C,9.1,PE,"2,8,9-Trioxa-5-aza-1-borabicyclo[3.3.3]undecane-3-one","Peel, Rothwell, et al., 1987"
 56898-50-1,Vertical value, C,9.3,PE,"Pyridine,4-methoxy-,compound with borane(1:1)","Weiner and Lattman, 1975"
 7154-75-8,LLK, C,9.83 ¡À 0.05,EI,"1-Pentyne, 4-methyl-","Wolkoff, Holmes, et al., 1980"
 5194-51-4,LLK, C,8.26 ¡À 0.05,EI,"2,4-Hexadiene, (E,E)-","Wolkoff, Holmes, et al., 1980"
 5194-50-3,LLK, C,8.24 ¡À 0.05,EI,"2,4-Hexadiene, (E,Z)-","Wolkoff, Holmes, et al., 1980"
 21020-27-9,LLK, C,9.31 ¡À 0.05,EI,4-Methyl-2-pentyne,"Wolkoff, Holmes, et al., 1980"
 1118-58-7,LLK, C,8.47 ¡À 0.02,PE,"1,3-Pentadiene, 2-methyl-","Bieri, Burger, et al., 1977"
 1501-60-6,Vertical value, C,8.65 ¡À 0.025,PE,"(Z)-1,3-Pentadiene, 2-methyl-","Werstiuk and Timmins, 1988"
 20237-34-7,LLK, C,8.54 ¡À 0.05,EI,"(E)-1,3-Hexadiene","Wolkoff, Holmes, et al., 1980"
 7318-67-4,LLK, C,9.04 ¡À 0.05,EI,"1,4-Hexadiene, (Z)-","Wolkoff, Holmes, et al., 1980"
 763-30-4,LLK, C,9.16 ¡À 0.05,EI,"1,4-Pentadiene, 2-methyl-","Wolkoff, Holmes, et al., 1980"
 922-59-8,LLK, C,9.79 ¡À 0.05,EI,"1-Pentyne, 3-methyl-","Wolkoff, Holmes, et al., 1980"
 7417-48-3,LLK, C,8.74 ¡À 0.05,EI,"3-methylpenta-1,2-diene","Wolkoff, Holmes, et al., 1980"
 7319-00-8,LLK, C,8.98 ¡À 0.05,EI,"trans-1,4-Hexadiene","Wolkoff, Holmes, et al., 1980"
 2787-43-1,LLK, C,8.46 ¡À 0.05,EI,"1,3-Pentadiene, 3-methyl-, (E)-","Wolkoff, Holmes, et al., 1980"
 1115-08-8,LLK, C,9.40 ¡À 0.05,EI,"1,4-Pentadiene, 3-methyl-","Wolkoff, Holmes, et al., 1980"
 14596-92-0,, C,8.54,EI,"cis-1,3-hexadiene","Lossing and Traeger, 1975"
 592-44-9,LLK, C,9.00 ¡À 0.05,EI,"1,2-Hexadiene","Wolkoff, Holmes, et al., 1980"
 1528-21-8,LLK, C,8.70 ¡À 0.05,EI,Ethylidenecyclobutane,"Wolkoff, Holmes, et al., 1980"
 285-86-9,LBLHLM, C,9.7,PE,Bicyclo[2.1.1]hexane,"Della, Pigou, et al., 1984"
 186-04-9, , C,9.0 ¡À 0.1,PE,Bicyclo[2.2.0]hexane,"Bieri, Burger, et al., 1977"
 3043-33-2,LLK, C,8.64 ¡À 0.05,EI,"2,3-Pentadiene, 2-methyl-","Wolkoff, Holmes, et al., 1980"
 13643-05-5,LLK, C,9.06 ¡À 0.05,EI,"1,2-Pentadiene, 4-methyl-","Wolkoff, Holmes, et al., 1980"
 16906-27-7,Vertical value; , C,8.92,PE,"Cyclopropane, 1-ethenyl-1-methyl-","Plemenkov, Zverev, et al., 1989"
 592-49-4,LLK, C,8.76 ¡À 0.05,EI,"2,3-Hexadiene","Wolkoff, Holmes, et al., 1980"
 6108-61-8,LLK, C,8.18 ¡À 0.02,PE,"(Z),(Z)-2,4-Hexadiene","Bieri, Burger, et al., 1977"
 157-45-9, , C,9.1,PE,Spirohexane,"Hemmersbach and Klessinger, 1980"
 926-54-5,LL, C,8.42 ¡À 0.025,PE,"1,3-Pentadiene, 2-methyl-, (E)-","Werstiuk and Timmins, 1988"
 2787-45-3,Vertical value, C,8.38,PE,"1,3-Pentadiene, 3-methyl-, (Z)-","Masclet, Mouvier, et al., 1981"
 2597-49-1,Vertical value; , C,9.44,PE,"Cyclobutane, ethenyl-","Bruckmann and Klessinger, 1978"
 5905-48-6,Vertical value, C,8.2,PE,"Cadmium, dipropyl-","Creber and Bancroft, 1980"
 107-83-5,LL, C,10.04,EST,"Pentane, 2-methyl-","Luo and Pacey, 1992"
 29877-93-8,, C,10.45,EI,Chloro-bis(n-propyloxy)borane,"Lappert, Litzow, et al., 1970"
 1730-15-0,, C,7.9,PE,"[1,3,2]Diazaborino[1,2-a][1,3,2]diazaborine,octahydro-","Bock and Fuss, 1971"
 31608-80-7,LLK, C,8.31 ¡À 0.10,EI,"Silane, trimethyl(trimethylgermyl)-","Lappert, Pedley, et al., 1971"
 16393-89-8,LLK, C,8.1,PE,"Stannane, trimethyl(trimethylgermyl)-","Szepes, Koranyi, et al., 1981"
 877-07-6,RDSH, C,8.77,EI,"Borazine,hexamethyl-","Kuznesof, Stafford, et al., 1967"
 4375-83-1,RDSH, C,7.75,EI,Tris(dimethylamino)borane,"Lappert, Litzow, et al., 1970"
 14511-33-2,Vertical value, C,7.78 ¡À 0.05,PE,"Diplumbthiane, hexamethyl-","Distefano, Ricci, et al., 1974"
 6255-58-9,Vertical value, C,9.1,PE,"1,3,2-Benzodioxathiole, 2-oxide","Koenig, Smith, et al., 1977"
 6199-00-4, , C,8.6 ¡À 0.1,EI,"Digermathiane, hexamethyl-","Distefano, Ricci, et al., 1974"
 993-52-2,LBLHLM, C,8.09,PE,"Digermane, hexamethyl-","Traven', Redchenko, et al., 1982"
 583-63-1,Vertical value; , C,9.6,PE,o-Benzoquinone,"Schang, Gleiter, et al., 1978"
 81640-31-5,LLK, C,9,PE,"Bicyclo[3.1.0]hexan-2,3,4-trione","Beck, Hofmann, et al., 1981"
 106-51-4,LLK, C,10.11,PE,p-Benzoquinone,"Lauer, Schafer, et al., 1975"
 55058-68-9,Vertical value, C,8.95 ¡À 0.05,PE,"7-Oxabicyclo[2.2.1]hept-5-ene-2,3-dione","Dougherty, Blankespoor, et al., 1979"
 77825-98-0, , C,8.3,PE,"1,2,3-Benzoxadithiole 2-oxide","Schulz and Schweig, 1981"
 2510-89-6,, C,10.89,PE,"Phosphorochloridic acid, dipropyl ester","Zverev, Vilesov, et al., 1975"
 36264-19-4,Vertical value, C,8.73,PE,"1,2,3-Benzotrithiole-2-oxide","Breitenstein, Schulz, et al., 1982"
 96-14-0,LL, C,10.04,EST,"Pentane, 3-methyl-","Luo and Pacey, 1992"
 75-83-2,LL, C,10.07,EST,"Butane, 2,2-dimethyl-","Luo and Pacey, 1992"
 73263-55-5,Vertical value, C,9.02,PE,"Boranediamine,N-(dimethylboryl)-N,N',N',1-tetramethyl","Barlos and Noth, 1980"
 79014-73-6,Vertical value, C,8.78,PE,"Hydrazine, N,N-dimethyl-N',N'-bis(dimethylboryl)-","Fussstetter and Noth, 1981"
 6713-83-3,, C,7.41 ¡À 0.10,EI,"Diplumbane, hexamethyl-","Lappert, Pedley, et al., 1971"
 762-66-3,Vertical value, C,8.85,PE,"Germane, trimethyl-2-propenyl-","Schweig, Weidner, et al., 1974"
 54154-15-3,Vertical value, C,7.35,PE,"1,2,4,5,3,6-Tetrazadiborine,hexahydro-3,6-dimethoxy-1,2,4,5-tetramethyl-","Kroner, Nolle, et al., 1974"
 54154-14-2,Vertical value, C,7.39,PE,"1,2,4,5,3,6-Tetrazadiborine,hexahydro-1,2,4,5-tetramethyl-3,6-bis(methylthio)-","Kroner, Nolle, et al., 1974"
 762-73-2,Vertical value; , C,8.5,PE,"Stannane, trimethyl-2-propenyl-","Schweig, Weidner, et al., 1974"
 7318-93-6,Vertical value, C,6.83,PE,"1,2,4,5,3,6-Tetrazadiborine,hexahydro-1,2,3,4,5,6-hexamethyl-","Kroner, Nolle, et al., 1974"
 4727-22-4,LLK, C,8.05,PE,"2,4-Cyclopentadien-1-ylidene methanone","Bock, Hirabayashi, et al., 1981"
 53246-15-4,Vertical value, C,7.7,PE,"1,2,4,3,5-Triazadiborolidine,4-(dimethylphosphino)-1,2,3,5-tetramethyl-","Kroner, Nolle, et al., 1975"
 53246-20-1,Vertical value, C,7.64,PE,"1,2,4,3,5-Triazadiborolidine,1-(dimethylphosphino)-2,3,4,5-tetramethyl-","Kroner, Nolle, et al., 1975"
 40020-13-1,, C,9.6,PE,"Oxirane,cis-2,3-diethynyl-","Brogli, Heilbronner, et al., 1975"
 40020-12-0,Vertical value, C,8.05,PE,"3-Oxabicyclo[3.2.0]hepta-1,4,6-triene","Muller, Schweig, et al., 1979"
 40020-14-2,, C,9.5,PE,"Oxirane,trans-2,3-diethynyl-","Brogli, Heilbronner, et al., 1975"
 628-85-3,Vertical value; , C,8.29,PE,Di-n-propyl mercury,"Fehlner, Ulman, et al., 1976"
 110-54-3,LL, C,10.29,EST,n-Hexane,"Luo and Pacey, 1992"
 38880-06-7,Vertical value, C,8.67,PE,"Mercury, (2,2-dimethylpropyl)methyl-","Nugent, Wu, et al., 1976"
 79-29-8,LL, C,10.04,EST,"Butane, 2,3-dimethyl-","Luo and Pacey, 1992"
 59049-80-8,Vertical value, C,8.06,PE,"Mercury, (1,1-dimethylethyl)ethyl-","Fehlner, Ulman, et al., 1976"
 110920-52-0,, C,8.5 ¡À 0.1,EI,"1,3,5-Cyclotrisiloxane, hexamethoxy-","Tamas, Gomory, et al., 1990"
 1071-39-2,RDSH, C,7.6 ¡À 0.1,EI,Diisopropyl mercury,"Gowenlock, Haynes, et al., 1962"
 54760-87-1,Vertical value, C,8.42 ¡À 0.05,PE,Mercury bis(2-propanethiolate),"Biscarini, Colonna, et al., 1981"
 4080-28-8,Vertical value, C,8.68 ¡À 0.05,PE,Mercury bis(1-propanethiolate),"Biscarini, Colonna, et al., 1981"
 57877-84-6,Vertical value, C,7.5,PE,"1,2,4,3,5-Triazadiborolidine,4-(dimethylarsino)-1,2,3,5-tetramethyl-","Kroner, Nolle, et al., 1975"
 29871-59-8,, C,8.65,EI,"1,3,5,2,4,6-Triazatriphosphorine, 2,4,6-tris(dimethylamino)-2,4,6-trifluoro-","Clare and Sowerby, 1981"
 7549-83-9, , C,7.6,PE,Tris(dimethylamino)-difluorophosphorane,"Cowley, Goodman, et al., 1977"
 36133-73-0,LLK, C,8.3,PE,Hexamethyl tungsten,"Galyer, Wilkinson, et al., 1975"
 16892-64-1,Vertical value, C,8.5,PE,"1,3,5-Trithia-2,4,6-tristannacyclohexane, 2,2,4,4,6,6-hexamethyl-","Cauletti, Grandinetti, et al., 1988"
 1070-91-3,LL, C,7.8,PE,Hexamethyldistannathiane,"Cauletti, Grandinetti, et al., 1988"
 661-69-8,LBLHLM, C,7.8,PE,Hexamethylditin,"Granozzi, Bertoncello, et al., 1985"
 3385-94-2, , C,8.7 ¡À 0.1,EI,"Disilathiane, hexamethyl-","Distefano, Ricci, et al., 1974"
 56090-02-9,Vertical value, C,7.89 ¡À 0.03,PE,"Rhenium, hexamethyl-","Green, Lloyd, et al., 1978"
 52689-36-8,, C,7.25,EI,Bis(trimethylphosphite-p-)iron dinitrosyl,"Distefano and Innorta, 1968"
 67135-87-9, , C,7.5,PE,"1,2,4,6-Tetraphospha-3,5,7-trisilatricyclo[2.2.1.0","Gleiter, Bohm, et al., 1983"
 107-46-0,LBLHLM, C,9.6 ¡À 1.0,EI,"Disiloxane, hexamethyl-","Seefeldt, Moller, et al., 1985"
 2973-43-5,LLK, C,9.04,DER,p-Bromophenyl radical,"Nuyken and Messmer, 1977"
 33012-33-8,Vertical value, C,7.8,PE,"Gold, trimethyl(trimethylphosphine)-","Behan, Johnstone, et al., 1978"
 100-97-0,RDSH, C,8.26,PE,Methenamine,"Dewar and Worley, 1969"
 280-28-4,Vertical value, C,8.89,PE,"1,5-Diazabicyclo[3.2.1]octane","Nelsen and Buschek, 1974"
 89909-07-9, , C,7.3,PE,"3a,7a-Dithia-1,3,4,6-tetraazapentalene, 2,5-bis(dimethylamino)-","Gleiter, Bartetzko, et al., 1984"
 1608-14-6,LLK, C,9.02,PE,tetramethyloxamide,"Meeks and McGlynn, 1975"
 71771-37-4,Vertical value; , C,8.89,PE,"2a,4a,6a-Triaza-6b-phosphacyclopenta[cd]pentalene, hexahydro-, 6b-oxide","Cowley, Lattman, et al., 1982"
 53597-70-9,Vertical value; , C,8.19 ¡À 0.10,PE,"1,3,5-Triaza-7-phosphaadamantane 7-oxide","Cowley, Lattman, et al., 1982"
 71771-39-6,Vertical value, C,8.32,PE,"1,4,7-Triaza-10-phosphahexahydrotriquinacene-p-selenide","Cowley, Lattman, et al., 1982"
 79568-42-6,Vertical value, C,7.89,PE,"1,3,5-Triaza-7-phosphaadamantane-p-selenide","Cowley, Lattman, et al., 1982"
 34493-89-5,Vertical value, C,8.23 ¡À 0.03,PE,"1,2-Diazete, 3,4-dihydro-3,3,4,4-tetramethyl-, 1,2-dioxide","Bunzli, Olsen, et al., 1977"
 53597-69-6,Vertical value; , C,8.05 ¡À 0.10,PE,"1,3,5-Triaza-7-phosphaadamantane","Cowley, Lattman, et al., 1982"
 16597-35-6,LLK, C,7.3,PE,"2(1H)-Pyrimidinethione, tetrahydro-1,3-dimethyl-","Guimon, Gonbeau, et al., 1974"
 35840-78-9,Vertical value; , C,7.75,PE,"N,N,N',N'-Tetramethyldithiooxamide","Henriksen, Isaksson, et al., 1981"
 71771-38-5,Vertical value; , C,8.43 ¡À 0.10,PE,"2a,4a,6a-Triaza-6b-phosphacyclopenta[cd]pentalene, hexahydro-, 6b-sulfide","Cowley, Lattman, et al., 1982"
 56796-56-6,Vertical value; , C,8.02 ¡À 0.10,PE,"1,3,5-Triaza-7-phosphaadamantane 7-sulfide","Cowley, Lattman, et al., 1982"
 586-78-7,RDSH, C,9.8 ¡À 0.1,EI,"Benzene, 1-bromo-4-nitro-","Brown, 1970"
 54986-15-1,Vertical value, C,6.9,PE,"5H-Tetrazole, 1,4-dihydro-1,4-dimethyl-5-(1-methylethlidene)-","Quast, Ach, et al., 1993"
 585-79-5,RDSH, C,9.8 ¡À 0.1,EI,"Benzene, 1-bromo-3-nitro-","Brown, 1970"
 280-57-9,LL, C,7.321155 ¡À 0.000005,S,Triethylenediamine,"Boogaarts, Holleman, et al., 1996"
 5397-67-1,LBLHLM, C,6.51 ¡À 0.05,EQ,"1H,5H-Pyrazolo[1,2-a]pyrazole,tetrahydro-","Rumack, 1986"
 627-70-3,, C,8.6,PE,"2-Propanone, (1-methylethylidene)hydrazone","Vocelle, Dargelos, et al., 1977"
 54166-22-2,LLK, C,8.2,PE,Tetramethyldiazetine,"Domelsmith, Houk, et al., 1977"
 26163-36-0,LBLHLM, C,6.87 ¡À 0.05,EQ,"1,2-Diazacyclohex-4-ene, 1,2-dimethyl-","Rumack, 1986"
 329-94-2,Vertical value, C,8.52,PE,"1,2-Diazabicyclo[2.2.2]octane","Nelsen and Buschek, 1974"
 68738-47-6,Vertical value, C,7.15,PE,"Imidazole, tetrahydro-1,3-dimethyl-2-methylene-","Quast, Ach, et al., 1993"
 15601-98-6,Vertical value; , C,8.2,PE,"4,5-Diazaocta-3,5-diene","Kirste, Poppek, et al., 1984"
 67092-91-5,Vertical value; , C,9.16,PE,"1,1-Biazetidine","Nelsen, 1984"
 4381-85-5,, C,8.05,PE,"Butane-2,3-diimine, N,N'-dimethyl-","tom Dieck, Franz, et al., 1975"
 26516-62-1,Vertical value; , C,8.91,PE,"Benzamine, 4-bromo-N-sulfinyl-","Louwen, Van Dam, et al., 1982"
 54489-01-9,, C,7.21,EI,"1,3-Diselenole,2-(1,3-diselenol-2-ylidene)-","Engler, Kaufman, et al., 1975"