CAS,Comment,Formula,IE,Method,Name,Refer
 115752-78-8, , C,8,PE,"6,7-Benzotetracyclo[7.3.0.0","Fessner, Sedelmeier, et al., 1987"
 94-93-9,, C,8.53 ¡À 0.07,EI,"Phenol, 2,2'-[1,2-ethanediylbis(nitrilomethylidyne)]bis-","Gilbert, Taylor, et al., 1973"
 76193-90-3,Vertical value, C,8.43,PE,"Benzenamine,2,6-dimethyl-N-[(3-methylphenyl)methylene]-4-nitro-","Akaba, Tokumaru, et al., 1980"
 24764-91-8, , C,7.1,PE,"Benzenamine, N,N'-1,2-ethanediylidenebis[4-methoxy-","Guimon, Pfister-Guillouzo, et al., 1985"
 122423-79-4, , C,6,PE,"Iron[¦Ì-[(1,2,3,4-¦Ç]4-¦Ç)-1,3-butadiene-1,4-diyl]-¦Ì-carbonyltricarbonyl][N,N-1,2-ethandiylidenebis[2-propanamine]-N,N']di-","Bertoncello, Casarin, et al., 1989"
 98150-62-0, , C,6.3,PE,"Ferrocene, 1,1'-[1,6-hexanediylbis(thio)]-","Vondrak and Sato, 1989"
 562-88-9,, C,10.01 ¡À 0.05,EI,"Cyclo-tetrakis(bis(2,2,2-trifluoroethoxy)phosphonitrile)","Branton, Brion, et al., 1970"
 1633-22-3,LBLHLM, C,7.8,PE,[2.2]Paracyclophane,"Gleiter, Eckert-Maksic, et al., 1982"
 2844-19-1,Vertical value; , C,7.04,PE,"(E)-4-(2-(4-Bromophenyl)ethenyl)benzenamine, N,N-dimethyl","Cauletti, Furlani, et al., 1985"
 15738-33-7,, C,6.84 ¡À 0.08,EI,"Nickel,[N,N'-bis[(2-aminophenyl)methylene]-1,2-ethanediaminato(2-)-N,N',N'',N''']-","Gilbert, Taylor, et al., 1973"
 2319-97-3,Vertical value; , C,8.2,PE,(2.2)Metacyclophane,"Kovac, Allan, et al., 1980"
 20071-09-4,LBLHLM, C,8.2 ¡À 0.1,EI,"Benzene, 1,1'-(1,2-cyclobutanediyl)bis-, trans-","Groenwold, Chess, et al., 1984"
 14161-72-9,LLK, C,7.9 ¡À 0.03,PI,"cis-1,2-Diphenyl-1-methylcyclopropane","Klyuev, Shurukhhin, et al., 1981"
 66081-13-8,Vertical value, C,8.74,PE,"1,6-Ethenocyclopenta[cd]pentaleno[2,1,6-gha]pentalene,1,1a,3a,3b,5a,5b,6,6a,6b,6c-decahydro-","Christoph, Muthard, et al., 1978"
 14161-73-0,LLK, C,7.9 ¡À 0.03,PI,"trans-1,2-Diphenyl-1-methylcyclopropane","Klyuev, Shurukhhin, et al., 1981"
 76246-38-3,Vertical value, C,7.8,PE,"Stannane, 1,4-naphthalenediylbis[trimethyl-]-","Kaim, Tesmann, et al., 1980"
 1024-47-1,Vertical value, C,7.85,PE,"Silane, 1,4-naphthalenediylbis[trimethyl-]-","Kaim, Tesmann, et al., 1980"
 366-29-0,LLK, C,6.4,PI,"[1,1'-Biphenyl]-4,4'-diamine, N,N,N',N'-tetramethyl-","Pykhtina, Cherednichenko, et al., 1974"
 526-36-3,Vertical value, C,8.49,PE,"1H-Imidazole, 2-[[4-(1,1-dimethylethyl)-2,6-dimethylphenyl]methyl]-4,5-dihydro-","De Jong and van Dam, 1979"
 1491-59-4,Vertical value, C,8.36,PE,Oxymetazoline,"De Jong and van Dam, 1979"
 74773-73-2,Vertical value, C,7.77,PE,Bis(9-azabicyclo[3.3.1]nonan-3-one-9-yl),"Nelsen, Kessel, et al., 1980"
 114184-42-8, , C,7.3,PE,"Octamethyltetrasila[2.2](2,5)furanophane","Gleiter, Schafer, et al., 1988"
 12092-45-4,, C,7.2 ¡À 0.1,EI,"Rhodium, di-¦Ì-bromobis[(1,2,5,6-¦Ç)-1,5-cyclooctadiene]di-","Davidson, Jones, et al., 1969"
 6031-41-0,Vertical value, C,8.45,PE,"Stannane, tetrakis(1-methylpropyl)-","Kochi, 1980"
 1461-25-2,Vertical value; , C,8.76,PE,"Stannane, tetrabutyl-","Kochi, 1980"
 3531-43-9,Vertical value; , C,8.68,PE,"Stannane, tetraisobutyl-","Kochi, 1980"
 103185-26-8,, C,8.77,PI,Tricyclo[3.3.1.1,"Orlov, Boganov, et al., 1985"
 68364-29-4,Vertical value, C,7.7,PE,"Benzonorbornene, 9-isopropylidene-1,4-dimethoxy-","Paquette, Hertel, et al., 1981"
 90817-44-0, , C,8,PE,"1,2,3,4,5,6-Hexahydro[2.2]paracyclophane","Gleiter, Spanget-Larsen, et al., 1984"
 33022-24-1, , C,8,PE,"9,9,10,10-Tetramethyl-9,10-disila-9,10-dihydroanthracene","Traven', Redchenko, et al., 1981"
 77599-01-0, , C,7.8,PE,"Dibenzo[b,f][1,4,5]thiadisilepin, 5,6-dihydro-5,5,6,6-tetramethyl-","Traven', Redchenko, et al., 1981"
 12092-21-6,Vertical value; , C,5.21,PE,Bis(¦Ç,"Cabelli, Cowley, et al., 1982"
 81478-74-2, , C,7,PE,"1,4-Cyclohexadiene, 3-(4,4-dimethyl-2,5-cyclohexadien-1-ylidene)-6,6-dimethyl-","Bally, Neuhaus, et al., 1983"
 34101-24-1,Vertical value, C,8.10 ¡À 0.02,PE,"Tricyclo[4.2.0.0<sup>2,5</sup>]octane,1,2,5,6-tetramethyl-3,4,7,8-tetrakis(methylene)-(1&#945;,2&#946;,5&#946;,6&#945;)-","Borden, Young, et al., 1979"
 26050-79-3, , C,8,PE,"2,3'5,6'-Tetrahydro[2.2]paracyclophane","Gleiter, Spanget-Larsen, et al., 1984"
 34106-16-6,Vertical value, C,7.97 ¡À 0.02,PE,Tricyclo[3.3.0.0,"Borden, Young, et al., 1979"
 63297-21-2,Vertical value, C,6.84 ¡À 0.03,PE,"Azulene,2,4,5,6,7,8-hexamethyl-","Heilbronner, Hoshi, et al., 1976"
 73308-98-2,Vertical value, C,8.31,PE,"9-Azabicyclo[3.3.1]nonane,9-(9-boratabicyclo[3.3.1]non-9-yl)-","Nelsen, Kessel, et al., 1980"
 283-68-1,LBLHLM, C,9.1,PE,Tricyclo[8.2.2.2,"Gleiter, Spanget-Larsen, et al., 1984"
 114184-41-7, , C,7.2,PE,"Octamethyltetrasila[2.2](2,5)thiophenophane","Gleiter, Schafer, et al., 1988"
 14595-76-7,RDSH, C,7.52 ¡À 0.04,EI,"Silane,(phenylmethylidene)tris[trimethyl-","Bock, Seidl, et al., 1968"
 79593-41-2, , C,6.8,PE,"Hexaphosphabicyclo[3.1.0]hexane, tetrakis(1,1-dimethylethyl)-","Gleiter, Bohm, et al., 1983"
 13904-54-6,, C,7.1,EI,Tetrabutyldiphosphine,"Bogolyubov, Grishin, et al., 1969"
 13969-03-4,Vertical value, C,7.39,PE,"Tetraphosphetane,tetrabutyl-","Cowley, Dewar, et al., 1978"
 87205-48-9, , C,7.3,PE,"1,2,4,5-Tetraphospha-3-silaspiro[2.2]pentane, 1,2,4,5-tetrakis(1,1-dimethylethyl)-","Gleiter, Uschmann, et al., 1986"
 5995-07-3, , C,7.3,PE,"Cyclobutaphosphane, tetrakis(1,1-dimethylethyl)-","Elbel, Egsgaard, et al., 1988"
 25395-78-2,LLK, C,6.2 ¡À 0.25,DER,Tert-butyllithium tetramer,"McLean, Murray, et al., 1978"
 37755-92-3, , C,7,PE,"Cyclobutaarsane, tetrakis(1,1-dimethylethyl)-","Elbel, Egsgaard, et al., 1988"
 56519-47-2,Vertical value, C,8.0 ¡À 0.1,PE,"Rhenium, oxotetrakis[(trimethylsilyl)methyl]-","Green, Lloyd, et al., 1978"
 19976-85-3,, C,6.5 ¡À 0.05,EI,"Chromium, tetracarbonylbis(hexamethylphosphorous triamide-P)-, (OC-6-22)-","Saalfeld, DeCorpo, et al., 1972"
 10075-83-9,Vertical value, C,7.44,PE,"Anthracene-9,10-bis(methylthio)-","Bock and Brahler, 1977"
 33948-28-6,LLK, C,8,PE,Tetrakis(trimethylsilylmethyl)titanium,"Lappert, Pedley, et al., 1974"
 32665-18-2,LLK, C,8.2,PE,Tetrakis(trimethylsilylmethyl)zirconium,"Lappert, Pedley, et al., 1974"
 18547-12-1,Vertical value, C,8.7 ¡À 0.1,PE,"Silane, [stannanetetrayltetrakis(methylene)tetrakis[trimethyl-","Evans, Green, et al., 1973"
 79933-17-8, , C,7,PE,"1,2¦Ë","Elbel, Ellis, et al., 1985"
 68970-10-5,Vertical value, C,8.21,PE,"Hydrazine, 1,1-diheptyl 2,2-dimethyl-","Nelsen, 1984"
 60678-70-8,Vertical value, C,7.93,PE,"Hydrazine, tetrabutyl-","Nelsen, 1984"
 40334-04-1,Vertical value, C,8.6 ¡À 0.1,PE,"Hafnium, tetrakis[(trimethylsilyl)methyl]-","Lappert, Pedley, et al., 1974"
 27342-90-1,Vertical value, C,9.17,PE,"Molybdenum, tetracarbonylbis(hexamethylphosphorus triamide-p)-","Head, Nixon, et al., 1975"
 18547-13-2,Vertical value, C,7.18,PE,"Silane, plumbanetetrayltetrakis(methylene)]tetrakis[trimethyl-","Harris and Lappert, 1974"
 68970-07-0,Vertical value, C,8.11,PE,"Hydrazine, tetraisobutyl-","Nelsen, 1984"
 19976-86-4,, C,5.5 ¡À 0.05,EI,"Tungsten, tetracarbonylbis(hexamethylphosphorous triamide-P)-","Saalfeld, DeCorpo, et al., 1972"
 35394-18-4,Vertical value, C,7.3 ¡À 0.1,PE,Tetrakis(trimethylsilylmethyl)chromium,"Evans, Green, et al., 1973"
 54141-88-7,Vertical value, C,7.42,PE,"Cyclotetrasilane, tetrakis(1,1-dimethylethyl)-","Biernbaum and West, 1974"
 19824-55-6,Vertical value, C,7.15,PE,"Hafnium, tetrakis(diethylamino)-","Gibbins, Lappert, et al., 1975"
 67938-78-7,Vertical value, C,5.9,PE,"Chromium, tetrakis(diethylamino)-","Chisholm, Cowley, et al., 1980"
 13801-49-5,Vertical value, C,6.76,PE,Tetrakis(diethylamino)zirconium,"Gibbins, Lappert, et al., 1975"
 4419-47-0,Vertical value, C,6.83,PE,Tetrakis(diethylamino)titanium,"Gibbins, Lappert, et al., 1975"
 14167-15-8,, C,7.69 ¡À 0.09,EI,Bis(salicylidene)ethylenediiminocopper,"Gilbert, Taylor, et al., 1973"
 6251-01-0,, C,8.5,PE,"Tetracyano-2,6-naphthoquinodimethane","Sato, Seki, et al., 1981"
 14167-18-1,, C,7.52 ¡À 0.06,EI,"N,N'-Bis(salicylidene)ethylenediiminocobalt (II)","Gilbert, Taylor, et al., 1973"
 1576-67-6,, C,7.60 ¡À 0.03,EI,"Phenanthrene, 3,6-dimethyl-","Nounou, 1966"
 13928-31-9,, C,7.77 ¡À 0.08,EI,"Manganese, [[2,2'-[1,2-ethanediylbis[(nitrilo-¦ÊN)methylidyne]]bis[phenolato-¦ÊO]](2-)]-","Gilbert, Taylor, et al., 1973"
 1576-69-8,LLK, C,8.0 ¡À 0.1,EI,"Phenanthrene, 2,7-dimethyl-","Dougherty, Bertorello, et al., 1971"
 2786-70-1,, C,5.8 ¡À 0.2,LE,"2,3-dihydro-3-methyl-2-(3-methyl-3H-benzothiazol-2-ylidene)benzothiazole","Nakato, Chiyoda, et al., 1974"
 14167-20-5,LLK, C,7.57 ¡À 0.09,EI,"Nickel, [[2,2'-[1,2-ethanediylbis(nitrilomethylidyne)]bis[phenolato]](2-)-N,N',O,O']-, (SP-4-2)-","Gilbert, Taylor, et al., 1973"
 3674-69-9,LLK, C,7.6 ¡À 0.1,EI,"Phenanthrene, 4,5-dimethyl-","Dougherty, Bertorello, et al., 1971"
 3674-65-5,, C,7.80 ¡À 0.03,EI,"Phenanthrene, 2,3-dimethyl-","Nounou, 1966"
 3674-66-6,, C,7.83 ¡À 0.04,EI,"Phenanthrene, 2,5-dimethyl-","Nounou, 1966"
 604-83-1,RDSH, C,8.01 ¡À 0.05,EI,"Phenanthrene, 9,10-dimethyl-","Nounou, 1966"
 886-65-7,LLK, C,8.05,PE,"1,4-Diphenyl-1,3-butadiene","Rucker, Lang, et al., 1980"
 5675-64-9,LBLHLM, C,8.1,PE,"9,10-Ethanoanthracene, 9,10-dihydro-","Haselbach, Neuhaus, et al., 1982"
 20672-23-5,Vertical value, C,6.73,PE,"Cyclopenta[ef]heptalene,3,5-dimethyl-","Bischof, Gleiter, et al., 1976"
 13682-03-6, , C,7.4,PE,¦Ì,"Deshmukh, Dutta, et al., 1982"
 40306-87-4,Vertical value, C,7.9,PE,"4H-Dithieno[2,3-c:3',2'-e]azepine,5,6-dihydro-5-phenyl-","Meunier and Pfister-Guillouzo, 1977"
 28752-28-5,, C,9.30 ¡À 0.05,EI,"Cyclopropanecarbonitrile, 1,2-bis(p-nitrophenyl)-","Lageot, 1971"
 64504-70-7,Vertical value, C,7.5,PE,"4H-Dithieno[3,4-c:3',4'-e]azepine,5,6-dihydro-5-phenyl-","Meunier and Pfister-Guillouzo, 1977"
 243-28-7,, C,7.1 ¡À 0.1,EI,Benzo(b)carbazole,"Riepe and Zander, 1969"
 1606-67-3,, C,6.8 ¡À 0.1,CTS,1-Aminopyrene,"Farrell and Newton, 1966"
 239-01-0,, C,7.1 ¡À 0.1,EI,11H-Benzo[a]carbazole,"Riepe and Zander, 1969"
 34777-33-8,, C,7.3 ¡À 0.1,EI,Benzo(c)carbazole,"Riepe and Zander, 1969"
 1732-23-6,, C,7.4 ¡À 0.1,CTS,2-Pyrenamine,"Farrell and Newton, 1966"
 69915-36-2,Vertical value, C,7.17 ¡À 0.04,PE,"Phenalene,1-thione-9-(methylethyl)amino-","Carnovale, Gan, et al., 1980"
 55507-32-9,, C,7.68 ¡À 0.05,EI,"Indeno[1,2-b]azirin-6(1H)-one,1a,6a-dihydro-1-(4-methoxyphenyl)-","Hansen and Undheim, 1975"
 56359-30-9,, C,6.93 ¡À 0.05,EI,"Isoquinolinium,4-hydroxy-2-(4-methoxyphenyl)-hydroxide,inner salt","Hansen and Undheim, 1975"
 6636-32-4,Vertical value, C,8.1,PE,"3H-Indole,3,3-dimethyl-2-phenyl-","Bally, Haselbach, et al., 1976"
 90-30-2,, C,7.12,CTS,"1-Naphthalenamine, N-phenyl-","Kinoshita, 1962"
 135-88-6,, C,7.15,CTS,"2-Naphthalenamine, N-phenyl-","Kinoshita, 1962"
 10224-14-3,, C,8.80 ¡À 0.08,EI,"Cyclopropanecarbonitrile, 1,2-diphenyl-","Lageot, 1971"
 70389-17-2,Vertical value, C,7.92,PE,16-Azatricyclo[9.2.2.1,"Reingold, Schmidt, et al., 1979"
 65738-45-6,Vertical value, C,6.99,PE,"Cyclopent[4,5]azepino[2,1,7-cd]pyrrolizine,6,8-dimethyl-","Palmer, Leaver, et al., 1977"
 41267-76-9,Vertical value, C,7.07,PE,"2,3,6,7-tetrahydro-9-methyl-1H,5H,11H-[1]benzopyrano[6,7,8-ij]quinolizin-11-one","Redchenko, Safronov, et al., 1992"
 70389-16-1,Vertical value, C,8.06,PE,16-Azatricyclo[9.2.2.1,"Reingold, Schmidt, et al., 1979"
 10122-95-9,, C,6.9,PE,Tricyclo[8.2.2.2,"Heilbronner and Maier, 1974"
 57387-52-7,Vertical value, C,7.9,PE,"Benzamine,2,6-dimethyl-N-[(3-methylphenyl)methylene]-","Akaba, Tokumaru, et al., 1980"
 36682-12-9,, C,6.6 ¡À 0.1,EI,"Cobalt,(¦Ç","Herberich, Greiss, et al., 1971"
 77847-30-4,Vertical value, C,6.0 ¡À 0.1,PE,"Tantalum, carbonyl bis(¦Ç","Van Dam, Terpstra, et al., 1981"
 3007-73-6,, C,7.5,CTS,N-Decylaniline,"Briegleb and Czekalla, 1959"
 6249-76-9,, C,7.1,CTS,"N,N-Dipentylaniline","Briegleb and Czekalla, 1959"
 125963-13-5,Vertical value, C,6.9,PE,Bis(ethene)-¦Ç,"Frankcom, Green, et al., 1993"
 18474-82-3,, C,7.29 ¡À 0.05,EI,Tributylphosphine iron tetracarbonyl,"Distefano, Innorta, et al., 1968"
 84668-86-0, , BClS,10.57 ¡À 0.05,PE,Boron monochloride monosulfide,"Suffolk, Cooper, et al., 1988"
 7637-07-2,LBLHLM, BF,16.0 ¡À 1.0,EI,Boron trifluoride,"Farber and Srivastava, 1984"
 14720-31-1,LLK, BCl,14.1,EI,Dichlorofluoroborane,"Srivastava and Farber, 1971"
 13709-76-7,, BCl,9.93 ¡À 0.10,EI,Dichloroiodoborane,"Lappert, Litzow, et al., 1968"
 10325-39-0,LLK, BCl,11.91 ¡À 0.02,PE,dichloroborane,"Frost, Kirby, et al., 1981"
 14931-39-6,LLK, BF,11.02 ¡À 0.03,PE,"Borane(3), compound with phosphorus trifluoride(1:1)","Lloyd and Lynaugh, 1972"
 87961-59-9,Vertical value, C,5.16,PE,"Cobalt, ¦Ç","Dudeney, Green, et al., 1983"
 31665-25-5,, At,8.3,DER,Diastatine,"Kiser, 1960"
 55753-38-3,, BClS,10.5 ¡À 0.1,PE,"Borane, chlorothioxo-","Kirby, Kroto, et al., 1978"
 83995-89-5,LL, BFS,10.91,PE,Boron monofluoride monosulfide,"Suffolk, Cooper, et al., 1988"
 13709-74-5,, BClI,9.49 ¡À 0.14,EI,Chlorodiiodoborane,"Lappert, Litzow, et al., 1968"
 23361-56-0,LLK, BFO,14. ¡À 1.,EI,Boron monofluoride monoxide,"Uy, Srivastava, et al., 1971"
 13768-60-0,LBLHLM, BF,11.0 ¡À 1.0,EI,boron fluoride,"Farber and Srivastava, 1984"
 22095-63-2,, BFI,9.69 ¡À 0.06,EI,Fluorodiiodoborane,"Lappert, Litzow, et al., 1968"
 12447-77-7,Vertical value, B,9.8,PE,6-Thiadecaborane(11),"Fehlner, Wu, et al., 1980"
 12006-82-5,, BF,17. ¡À 1.,EI,Boron difluoride oxide,"Uy, Srivastava, et al., 1971"
 13709-83-6,Vertical value; , BF,13.60 ¡À 0.05,PE,Difluoroborane,"Chong, Kirby, et al., 1981"
 41646-56-4,Vertical value, B,10.3,PE,1-Thiadecaborane(9),"Fehlner, Wu, et al., 1980"
 60073-67-8,Vertical value, BF,11.5 ¡À 0.1,PE,"Phosphoramidous difluoride, (difluoroboryl)-","Arnold, Ebsworth, et al., 1976"
 20583-55-5,LL, BCl,10.2,DER,Boron monochloride,"Lias, Bartmess, et al., 1988"
 22095-62-1,, BF,10.42 ¡À 0.08,EI,Difluoroiodoborane,"Lappert, Litzow, et al., 1968"
 13842-55-2,LL, BF,9.4,DER,Difluoroboryl radical,"Lias, Bartmess, et al., 1988"
 50673-31-9,LBLHLM, BF,10.9,PE,"Borane, aminodifluoro","Kroto and McNaughton, 1985"
 12008-47-8, , B,10,PE,"Nonaborane(9), nonachloro-","LeBreton, Urano, et al., 1986"
 24034-84-2,, B,10,EI,Pentaborane (9)-d9,"Fehlner and Koski, 1964"
 133947-14-5,, C,6.84 ¡À 0.10,IMB,c80-Fullerene,"Zimmerman and Eyler, 1991"
 18433-84-6,LLK, B,10.1,PE,Pentaborane(11),"Ulman and Fehlner, 1978"
 12430-42-1,, B,10.1 ¡À 0.2,EI,Decaborane(16),"Hall, Subbanna, et al., 1964"
 12008-19-4,RDSH, B,9.8 ¡À 0.2,EI,Hexaborane(12),"Steck, Pressley, et al., 1970"
 19469-14-8,RDSH, B,9.90 ¡À 0.05,EI,"Pentaborane(9),2-chloro-","Murphy and Enrione, 1970"
 19469-13-7,RDSH, B,9.48 ¡À 0.10,EI,"Pentaborane(9),1-chloro-","Murphy and Enrione, 1970"
 28556-29-8,Vertical value, B,10.4,PE,"Pentaborane(9),1-silyl-","Ulman and Fehlner, 1976"
 22044-27-5,Vertical value, B,10.17,PE,"Pentaborane(9),2,3-¦Ì-silyl-","Ulman and Fehlner, 1976"
 30624-33-0,RDSH, B,8.49 ¡À 0.05,EI,"Pentaborane(9),1-iodo-","Murphy and Enrione, 1970"
 20199-87-5,RDSH, B,8.82 ¡À 0.02,EI,"Pentaborane(9),2-iodo-","Murphy and Enrione, 1970"
 17702-41-9,LLK, B,9.88 ¡À 0.03,PE,Decaborane(14),"Lloyd, Lynaugh, et al., 1975"
 23777-80-2,LLK, B,9,PE,Hexaborane,"Ulman and Fehlner, 1978"
 22142-52-5,Vertical value, B,10.42,PE,"Pentaborane(9),2-silyl-","Ulman and Fehlner, 1976"
 73825-17-9,, B,8.5,EI,Octaboron hexadecasulfide,"Edwards, Leitnaker, et al., 1971"
 32915-80-3, , B,9.8,PE,"Octaborane(8), octachloro-","LeBreton, Urano, et al., 1986"
 19469-16-0,, B,9.5 ¡À 0.1,EI,Octaborane(12),"Steck, Pressley, et al., 1970"
 16979-36-5, , BO,9.92 ¡À 0.11,EI,Thallium(i) metaborate,"Bagarat'yan, Il'in, et al., 1973"
 13840-88-5,LLK, BO,12.7 ¡À 0.4,DER,Boron dioxide,"Bagarat'yan and Nikitin, 1979"
 13460-50-9,LLK, BHO,13.5 ¡À 1.0,EI,metaboric acid,"Uy, Srivastava, et al., 1971"
 14720-22-0,, BBrClF,11.46 ¡À 0.02,EI,Bromochlorofluoroborane,"Lappert, Litzow, et al., 1968"
 35425-33-3,, BBrClI,9.81 ¡À 0.02,EI,Bromochloroiodoborane,"Lappert, Litzow, et al., 1968"
 7775-19-1,, BNaO,9.18 ¡À 0.10,EI,"sodium metaborate, anhydrous","Shevchenko, Iljin, et al., 1976"
 66904-99-2, , BBrS,10.42 ¡À 0.05,PE,Boron monobromide monosulfide,"Suffolk, Cooper, et al., 1988"
 13709-70-1,RDSH, BBrCl,11.13 ¡À 0.18,EI,Bromodichloroborane(3),"Lappert, Pedley, et al., 1966"
 10294-33-4,LLK, BBr,10.51 ¡À 0.02,PE,Boron tribromide,"Bassett and Lloyd, 1971"
 13453-69-5,, BLiO,9.8 ¡À 0.5,EI,lithium metaborate,"Neubert, 1985"
 14720-35-5,RDSH, BH,11.0 ¡À 0.1,EI,Boranamine,"Kwon and McGee, 1970"
 20396-66-1,, B,12.0 ¡À 0.1,EI,Diborane(6)-d6,"Koski, Kaufman, et al., 1958"
 14720-25-3,, BBr,11.11 ¡À 0.10,EI,Dibromofluoroborane(3),"Lappert, Litzow, et al., 1968"
 13709-72-3,, BBr,9.74 ¡À 0.11,EI,Dibromoiodoborane,"Lappert, Litzow, et al., 1968"
 1065-80-1,LLK, C,6.75,PE,"hexabenzo[a,d,g,j,m,p]coronene","Clar and Schmidt, 1977"
 992-79-0,, C,8.70 ¡À 0.05,EI,Cyclo-tetrakis(diphenoxyphosphonitrile),"Branton, Brion, et al., 1970"
 13709-65-4,LLK, BBr,10.92 ¡À 0.02,PE,Dibromoborane,"Frost, Kirby, et al., 1981"
 78181-14-3, , C,7.7,PE,"Ruthenium(1,2-bis(p-methoxyphenylimino)ethane","Guimon, Pfister-Guillouzo, et al., 1985"
 13709-71-2,RDSH, BBr,10.79 ¡À 0.06,EI,Dibromochloroborane(3),"Lappert, Pedley, et al., 1966"
 77965-53-8,LBLHLM, BLiO,7.7 ¡À 0.5,EI,Lithium boron monoxide,"Neubert, 1985"
 16716-11-3,, C,8.28 ¡À 0.05,EI,"1,1':3',1'':3'',1''':3''',1'''':3'''',1''''':3''''',1'''''':3'''''',1'''''''-Octiphenyl","Gallegos, 1967"
 14355-21-6,, BBrI,9.40 ¡À 0.11,EI,Bromodiiodoborane,"Lappert, Litzow, et al., 1968"
 19961-29-6,, BBr,10.7 ¡À 0.2,EI,Boron monobromide,"Koski, Kaufman, et al., 1959"
 14720-23-1,, BBrF,11.95 ¡À 0.21,EI,Bromodifluoroborane(3),"Lappert, Litzow, et al., 1968"
 22268-28-6,, BBrFI,10.11 ¡À 0.08,El,Bromofluoroiodoborane,"Lappert, Litzow, et al., 1968"
 14452-64-3,RDSH, BH,9.8 ¡À 0.2,EI,Boron dihydride,"Fehlner and Koski, 1964"
 19121-56-3, , BH,10.1,PE,Phosphine-borane(3),"Cowley, Kemp, et al., 1982"
 13774-81-7,LLK, BH,9.44 ¡À 0.02,PE,"Borine, compound with ammonia(1:1)","Lloyd and Lynaugh, 1972"
 13766-26-2,LLK, BH,9.77,EVAL,Borane(1),"Huber and Herzberg, 1979"
 14457-85-3,LL, BHS,11.10 ¡À 0.05,PE,Boron hydride sulfide,"Suffolk, Cooper, et al., 1988"
 13517-10-7,LLK, BI,9.25 ¡À 0.03,PE,Boron triiodide,"Bassett and Lloyd, 1971"
 13283-31-3,LL, BH,12.026 ¡À 0.024,PI,Borane,"Ruscic, Mayhew, et al., 1988"
 13775-36-5,, BH,9.9 ¡À 0.3,EI,Thioboric acid,"Edwards, Wiedemeier, et al., 1966"
 12505-77-0,LL, BO,13.3 ¡À 0.5,EI,Boron monoxide,"Asano and Kou, 1988"
 91998-68-4,, B,10.10 ¡À 0.02,PE,"1,3,2,4-Dithiaboretane, 2,4-difluoro-","Cooper, Kroto, et al., 1984"
 13701-67-2,LLK, B,¡Ü10.42 ¡À 0.02,PE,Diboron tetrachloride,"Lynaugh, Lloyd, et al., 1972"
 12523-60-3,, B,14.1 ¡À 0.1,EI,Bis(difluoroboryl) oxide,"Bidinosti and Coatsworth, 1970"
 13965-73-6,LLK, B,¡Ü12.23 ¡À 0.06,PE,Diboron tetrafluoride,"Lynaugh, Lloyd, et al., 1972"
 13766-28-4,LL, B,13.9 ¡À 0.5,EI,Diboron dioxide,"Asano and Kou, 1988"
 18099-45-1,LL, B,9.70 ¡À 0.02,PI,Diborane(4),"Ruscic, Schwarz, et al., 1989"
 19287-45-7,LL, B,¡Ü11.37 ¡À 0.05,PI,Diborane,"Ruscic, Mayhew, et al., 1988"
 56644-98-5,, BO,10.9 ¡À 0.3,EI,Tungsten boron tetraoxide,"Gusarov, Gotkis, et al., 1975"
 12007-33-9,, B,9.4 ¡À 0.2,EI,diboron trisulphide,"Chen and Gilles, 1970"
 1303-86-2,LL, B,13.3 ¡À 0.5,EI,diboron trioxide,"Asano and Kou, 1988"
 37215-41-1,, B,10.0 ¡À 0.2,EI,Tetraboron hexasulfide,"Chen and Gilles, 1970"
 17156-85-3, , B,9.6,PE,"Tetraborane(4), tetrachloro-","LeBreton, Urano, et al., 1986"
 12007-71-5,LLK, B,10.9 ¡À 0.3,EI,Tetraborane(8),"Paine, Sodeck, et al., 1972"
 18283-93-7,LLK, B,10.76 ¡À 0.04,PE,Tetraborane(10),"Lloyd, Lynaugh, et al., 1975"
 12370-59-1,LBLHLM, B,10.6,PE,"Zirconium, tetrakis(tetrahydroborato)-","Hitchcock, Hao, et al., 1982"
 37274-93-4,Vertical value, B,11.6 ¡À 0.1,PE,"Hafnium, tetrakis[tetrahydroborato(1-)]-","Downs, Egdell, et al., 1978"
 53608-70-1, , B,10.8,PE,"Hafnium, tetrakis(tetrahydroborato)-","Hitchcock, Hao, et al., 1982"
 12523-77-2, , B,9.0 ¡À 0.5,EI,"Uranium, tetrakis[tetrahydroborato(1-)]-","Armentrout and Beauchamp, 1979"
 29750-36-5,, BSe,10. ¡À 1.,EI,Boron monoselenide,"Uy and Drowart, 1970"