CAS,Comment,Formula,IE,Method,Name,Refer
 31561-59-8,Vertical value; , C,9.12,PE,Trispiro[2.0.2.0.2.0]nonane,"Gleiter, Haider, et al., 1979"
 29304-70-9,LBLHLM, C,8,PE,"3,3-Dimethyl-6-methylidene-1,4-cyclohexadiene","Bally, Neuhaus, et al., 1983"
 36439-78-8,Vertical value; , C,8.41,PE,"Bicyclo[2.2.1]heptane, 2,3-bis(methylene)-","Werstiuk, Clark, et al., 1990"
 3048-65-5,, C,8.78,PE,"1H-Indene, 3a,4,7,7a-tetrahydro-","Bodor, Dewar, et al., 1970"
 19386-05-1,Vertical value, C,8.97,PE,"Bicyclo[2.2.2]oct-2-ene,5-methylene-","Asmus and Klessinger, 1974"
 61772-32-5,Vertical value, C,8.3,PE,Tricyclo[4.1.0.0,"Bischof, Gleiter, et al., 1978"
 60166-70-3,, C,8.62,PE,"Cyclopropane,1,1'-(1,2-propadienylidene)bis-","Dewar, Fonken, et al., 1976"
 696-86-6,RDSH, C,8.42 ¡À 0.03,PI,"cis,cis,cis-Cyclononatriene","Demeo and El-Sayed, 1970"
 16529-83-2,Vertical value; , C,8.92 ¡À 0.03,PE,Tricyclo[4.2.1.0,"Martin, Kagabu, et al., 1974"
 37831-90-6,Vertical value, C,9,PE,"Tetracyclo[6.1.0.0<sup>2,4</sup>.0<sup>5,7</sup>]nonane(1&#945;,2&#945;,4&#945;,5&#946;,7&#946;,8&#945;)-","Spanget-Larsen, Gleiter, et al., 1979"
 7078-40-2,Vertical value, C,9,PE,Tricyclo[4.2.1.0,"Haselbach and Eberbach, 1973"
 105961-77-1, , C,8.1,PE,"Cyclopropane, 1-(propen-1-yl)-1-(propyn-1-yl)-","Eckert-Maksie, Gleiter, et al., 1991"
 20685-34-1,LBLHLM, C,9.1,PE,Tetravinylmethane,"Gleiter, Haider, et al., 1983"
 62163-62-6,Vertical value, C,8.5,PE,Tricyclo[6.1.0.0,"Spanget-Larsen, Gleiter, et al., 1978"
 16529-76-3,Vertical value, C,9.00 ¡À 0.05,PE,Tricyclo[4.2.1.0,"Brogli, Eberbach, et al., 1973"
 62211-22-7,Vertical value, C,9,PE,Tricyclo[6.1.0.0,"Spanget-Larsen, Gleiter, et al., 1978"
 62279-39-4,Vertical value, C,8.96,PE,Tricyclo[6.1.0.0,"Spanget-Larsen, Gleiter, et al., 1978"
 62211-27-2,Vertical value, C,8.9,PE,Tricyclo[6.1.0.0,"Spanget-Larsen, Gleiter, et al., 1978"
 3105-29-1,LLK, C,8.2,PE,"Tetracyclo[3.3.1.0(2,8).0(4,6)]nonane","Haselbach, Heilbronner, et al., 1972"
 7092-58-2,Vertical value, C,8.8,PE,Tricyclo[3.2.2.0,"Bruckmann and Klessinger, 1972"
 6572-82-3,Vertical value, C,8.23,PE,"Bicyclo[4.2.1]nona-2,4-diene","Schmidt, Schweig, et al., 1976"
 6827-30-1,Vertical value, C,8.7,PE,Tricyclo[4.2.1.0,"Haselbach and Eberbach, 1973"
 66563-20-0,LBLHLM, C,8.72,PE,"1H-Indene, 3a,4,7,7a-tetrahydro-, trans-","Turecek, Pancir, et al., 1985"
 14993-07-8,Vertical value, C,8.84,PE,"Bicyclo[3.2.2]nona-2,6-diene","Goldstein, Natowsky, et al., 1973"
 2806-45-3,, C,8.49 ¡À 0.01,PE,"Cyclohexane, 2-propynylidene-","Carlier, Mouvier, et al., 1979"
 66036-92-8,Vertical value, C,8.26,PE,Tricyclo[4.1.0.0,"Bischof, Gleiter, et al., 1978"
 7164-08-1,Vertical value, C,9,PE,"Bicyclo[3.2.2]nona-6,8-diene","Goldstein, Natowsky, et al., 1973"
 38310-48-4,Vertical value, C,9.10 ¡À 0.05,PE,"Tricyclo[3.2.1.0(2,4)]octane, 8-methylene-, (1¦Á,2¦Á,4¦Á,5¦Á)-","Martin, Heller, et al., 1977"
 934-56-5,LLK, C,8.83 ¡À 0.05,PE,"Stannane, trimethylphenyl-","Distefano, Pignataro, et al., 1974"
 15232-95-8,, C,8.83 ¡À 0.02,PE,"Cyclohexene,3-(2-propenyl)-","Rang, Paldoia, et al., 1974"
 768-32-1,LBLHLM, C,8.4,PE,"Silane, trimethylphenyl-","Traven', Redchenko, et al., 1982"
 57114-54-2,Vertical value, C,7.05,PE,"Benzenamine,N-trimethylphosphoranylidene)-","Starzewski and Dieck, 1979"
 40560-63-2,, C,7.8 ¡À 0.1,EI,"Plumbane,trimethyl(phenylthio)-","Distefano, Ricci, et al., 1974"
 19040-53-0,, C,~8.82,PE,"Plumbane,trimethylphenyl-","Distefano, Pignataro, et al., 1974"
 7124-86-9,LLK, C,8.7,PE,Bicyclo[3.2.2]non-6-ene,"Goldstein, Natowsky, et al., 1973"
 13511-13-2,, C,8.49 ¡À 0.01,PE,"Cyclohexene,1-(2-propenyl)-","Rang, Paldoia, et al., 1974"
 33546-30-4,, C,8.7 ¡À 0.2,EI,"Silane, 1,1-difluoro[4-(dimethylsilyl)phenyl]methyl-","Dube and Chvalovsky, 1974"
 34061-60-4,, C,7.4 ¡À 0.1,LE,"8-Azabicyclo[3.2.1]oct-8-yloxy,1,5-dimethyl-3-oxo-","Summermann and Deffner, 1975"
 17603-76-8,, C,8.57 ¡À 0.01,PE,2-Methyl-1-octen-3-yne,"Carlier, Mouvier, et al., 1979"
 2972-20-5,Vertical value; , C,8.87,PE,2-Methylene-bicyclo[2.2.2]-octane,"Asmus and Klessinger, 1974"
 119612-61-2,, C,8.8,PE,4-Neopentyloxypyrimidine-2-thiol,"Katritzky and Szafrani, 1990"
 17881-28-6,RDSH, C,7.05 ¡À 0.02,EI,"Diazene,phenyl(trimethylsilyl)-","Seidl, Bock, et al., 1970"
 61759-62-4,Vertical value, C,7.9,PE,"1-Pyrrolidinecarboxamide,N-1,3-butadienyl-(E)-","Overman, Taylor, et al., 1978"
 52353-57-8,Vertical value, C,6.44,PE,"Isothiazolo[5,1-e]isothiazole-7-s(iv),1,6-dihydro-1,2,5,6-tetramethyl-","Gleiter, Gygax, et al., 1975"
 21036-96-4,, C,9.9,PE,"Imidazolidinetrione,dipropyl-","Meeks, Arnett, et al., 1975"
 51500-09-5,Vertical value, C,7.53,PE,"1,3-Diazatricyclo[3.3.1.1","Gleiter, Kobayashi, et al., 1976"
 67144-64-3,Vertical value, C,7.68,PE,"3,4-Diazatricyclo[4.2.1.0","Nelsen, Peacock, et al., 1978"
 87373-47-5,Vertical value, C,8.32,PE,"2,3-Diazabicyclo[2.2.2]oct-2-ene, 1-cyclopropyl-","Engel, Gerth, et al., 1988"
 248-21-5,Vertical value, C,8.20 ¡À 0.05,PE,"2,7-Diazatetracyclo[3.3.3.0","Werstiuk, Butler, et al., 1986"
 16526-28-6,Vertical value; , C,9.65 ¡À 0.03,PE,Tricyclo[4.2.1.0,"Martin, Kagabu, et al., 1974"
 17530-61-9,LLK, C,8,PE,Bicyclo[3.3.1]non-1-ene,"Batich, Heilbronner, et al., 1976"
 4249-10-9,LL, C,7.3,PE,"1,2,3,4-Tetramethylcyclopentadiene","Kiselev, Sakhabutdinov, et al., 1992"
 4877-39-8,Vertical value, C,9.08,PE,3-methylenebicyclo[3.2.1octane,"Spanka and Rademacher, 1986"
 16526-27-5,LLK, C,8.8,PE,Tricyclo[4.2.1.0,"Brogli, Eberbach, et al., 1973"
 81969-71-3,LBLHLM, C,8.3,PE,"Tricyclo[6.1.0.0]nonane-(1¦Á,2¦Á,4¦Á,8¦Á)-","Spanget-Larsen, Gleiter, et al., 1982"
 278-80-8,Vertical value, C,9.5,PE,Tricyclo[3.2.2.0,"Heilbronner, Gleiter, et al., 1973"
 873-12-1,LLK, C,8.73,PE,Spiro[4.4]non-1-ene,"Bischof, Gleiter, et al., 1974"
 20023-43-2,, C,8.41,PE,"Cyclohexane,1-propenylidene-","Pasto, Fehlner, et al., 1976"
 24973-90-8,LBLHLM, C,8.3,PE,Dispiro[2.0.2.3]nonane,"Spanget-Larsen, Gleiter, et al., 1982"
 37817-46-2,, C,7.7,PE,"Cyclopropane, 1,2-dimethyl-3-(2-methyl-1-propenylidene)-trans-","Pasto, Fehlner, et al., 1976"
 4249-11-0,RDSH, C,7.84 ¡À 0.05,EI,"1,4,5,5-Tetramethylcyclopentadiene","Meyer and Harrison, 1964"
 53497-78-2,, C,8.46 ¡À 0.01,PE,"4-Nonen-2-yne, (Z)-","Carlier, Mouvier, et al., 1979"
 53497-79-3,, C,8.46 ¡À 0.01,PE,"4-Nonen-2-yne, (E)-","Carlier, Mouvier, et al., 1979"
 1123-11-1,Vertical value, C,8.87,PE,"1,2-Cyclononadiene","Brogli, Crandall, et al., 1973"
 105961-70-4, , C,8,PE,"Cyclopropane, 1,1-bis(1-propen-1-yl)-(Z,Z)-","Eckert-Maksie, Gleiter, et al., 1991"
 37817-36-0,, C,7.76,PE,"Cyclopropane,1,2-dimethyl-3-(2-methyl-1-propenylidene)-cis-","Pasto, Fehlner, et al., 1976"
 28438-32-6,, C,7.65,PE,"Cyclopropane,1,1-dimethyl-2-(2-methyl-1-propenylidene)-","Pasto, Fehlner, et al., 1976"
 173-89-7,Vertical value, C,9.45,PE,"Spiro[bicyclo[2.2.1]heptane-2,1'-cyclopropane]","Asmus and Klessinger, 1975"
 61786-07-0,, C,8.26 ¡À 0.01,PE,"3-Penten-1-yne, 4-methyl-3-(1-methylethyl)-","Carlier, Mouvier, et al., 1979"
 70058-01-4,, C,8.12 ¡À 0.01,PE,"4-Hepten-2-yne, 5-ethyl-","Carlier, Mouvier, et al., 1979"
 40319-81-1,Vertical value, C,8.84,PE,Bicyclo[3.2.2]non-2-ene,"Goldstein, Natowsky, et al., 1973"
 105961-71-5,Vertical value, C,8.4,PE,"Cyclopropane, 1,1-bis(1-propen-1-yl)-(E,Z)-","Eckert-Maksie, Gleiter, et al., 1991"
 6731-21-1,, C,8.60 ¡À 0.03,PI,"1,4-Cyclononadiene","Demeo and El-Sayed, 1970"
 60042-77-5,, C,8.6,PE,"Cyclopropane,(1-ethyl-1,2-butadienyl)-","Dewar, Fonken, et al., 1976"
 996-50-9,LBLHLM, C,7.68,PE,"Diethylamine, TMS derivative","Molder, Pikver, et al., 1983"
 3356-37-4,Vertical value, C,8.69,PE,"Phosphonic diamide, N,N,N',N'-tetramethyl-p-propadienyl-","Zverev, Islamov, et al., 1991"
 5577-67-3,Vertical value, C,8.41 ¡À 0.05,PE,"tert-Butylamine, TMS derivative","Harris, Lappert, et al., 1976"
 2288-13-3,LBLHLM, C,7.5,PE,"2,8,9-Trioxa-5-aza-1-silabicyclo[3.3.3]undecane, 1-methyl-","Brodskaya, Voronkov, et al., 1987"
 14680-21-8,Vertical value, C,8.44,PE,"Acetamide, N,N-diethyl-2-methylthio-","Jones, Modelli, et al., 1994"
 57070-96-9,, C,7.8,PE,"Cyclopentanol,cis-2-(dimethylamino)-","Brown, 1976"
 67137-81-9,, C,8.25,PE,"Isoxazolidine,2-(1,1-dimethylethyl)-","Rademacher and Freckmann, 1978"
 18760-79-7,, C,7.45,PE,"Cyclopentanol,trans-2-(dimethylamino)-","Brown, 1976"
 673-66-5,Vertical value, C,9.19,PE,2-Azacyclooctanone,"Treschanke and Rademacher, 1985"
 2556-73-2,LLK, C,9.00 ¡À 0.05,EI,"2H-Azepin-2-one, hexahydro-1-methyl-","Thorstad, Undheim, et al., 1975"
 1619-34-7,, C,¡Ü8.1,PE,3-Quinuclidinol,"Aue and Bowers, 1979"
 618-42-8,, C,9.1,EI,"Piperidine, 1-acetyl-","Schwarz and Bohlmann, 1973"
 2158-31-8,LLK, C,8.88 ¡À 0.03,PI,"Cycloheptanone, oxime","Golubitskii, Kulikov, et al., 1979"
 3400-13-3,, C,8.93 ¡À 0.05,EI,"1-Oxa-2-azaspiro(2.5)octane, 2-methyl-","Thorstad, Undheim, et al., 1975"
 26458-74-2,Vertical value, C,8.48 ¡À 0.015,PE,1-Azabicyclo[2.2.2]octan-4-ol,"Bieri and Heilbronner, 1974"
 58751-78-3,, C,7.97 ¡À 0.05,EI,"Methanamine, N-cyclohexylidene-, N-oxide","Thorstad, Undheim, et al., 1975"
 13858-85-0,, C,9.01 ¡À 0.05,EI,"Cyclohexanone, O-methyloxime","Thorstad, Undheim, et al., 1975"
 10409-46-8,, C,9.41,PE,"Cyclohexanone,2-chloro-2-methyl-","Loudet, Grimaud, et al., 1976"
 622-93-5,Vertical value, C,8.56 ¡À 0.05,PE,"1-Propanol, 3-(diethylamino)-","Leavell, Steichen, et al., 1973"
 36512-52-4,Vertical value, C,7.76,PE,"Platinum, chloromethylbis(trimethylphosphine)-","Behan, Johnstone, et al., 1978"
 671-36-3,LBLHLM, C,7.63 ¡À 0.05,PE,"Piperidine, 1,2-dimethyl-","Rozeboom and Houk, 1982"
 766-17-6,LBLHLM, C,7.93 ¡À 0.05,PE,"Piperidine, 2,6-dimethyl-, (2R,6S)-rel-","Rozeboom and Houk, 1982"
 695-15-8,LBLHLM, C,7.79 ¡À 0.05,PE,"Piperidine, 1,4-dimethyl-","Rozeboom and Houk, 1982"
 695-35-2,LBLHLM, C,7.76 ¡À 0.05,PE,"Piperidine, 1,3-dimethyl-","Rozeboom and Houk, 1982"
 20546-50-3, , C,7.3,PE,"1,3-Dioxa-6-aza-2-silacyclooctane, 2,2,6-trimethyl-","Brodskaya, Voronkov, et al., 1987"
 1193-12-0,LBLHLM, C,8.05 ¡À 0.05,PE,"3,3-Dimethylpiperidine","Rozeboom and Houk, 1982"
 1192-95-6,Vertical value, C,8.29 ¡À 0.02,PE,1-Methyl-hexahydroazepine,"Yoshikawa, Hashimoto, et al., 1974"
 18636-91-4,Vertical value, C,8.34,PE,"Cyclopentanamine,N,N-dimethyl-","Brown, 1976"
 32317-47-8,Vertical value; , C,7.61,PE,(E)-3-(Dimethylamino)-2-pentene,"Muller, Previdoli, et al., 1981"
 29218-65-3,Vertical value, C,6.2,PE,"Phosphorane, trimethyl(2-methylallylidene)-","Starzewski and Bock, 1976"
 61169-15-1,Vertical value, C,6.02,PE,"Phosphorane, 2-butenylidenetrimethyl-, (E)-","Starzewski and Bock, 1976"
 36055-83-1,Vertical value, C,7.69,PE,"Phosphorodiamidous acid, N,N,N',N'-tetramethyl-, isopropyl ester","Worley, Hargis, et al., 1982"
 20682-80-8,, C,8.3 ¡À 0.2,EI,Heptyl peroxy radical,"Burgess, SenSharma, et al., 1968"
 71431-36-2,Vertical value, C,10.04,PE,"Phosphinic acid, ethenylethyl-, propyl ester","Zverev, Villem, et al., 1978"
 77659-30-4, , C,7.7,PE,"Phosphine, allyl diethoxy selenide","Zverev, Villem, et al., 1981"
 16654-64-1,Vertical value, C,8.31,PE,"2-(Dimethylamino)ethanol, TMS derivative","Brodskaya, Voronkov, et al., 1987"
 100-76-5,LLK, C,7.5,PE,Quinuclidine,"Aue and Bowers, 1979"
 7242-92-4,LLK, C,8.4,PE,exo-2-Aminonorbornane,"Aue and Bowers, 1979"
 31002-73-0,LLK, C,8.3,PE,endo-2-Aminonorbornane,"Aue and Bowers, 1979"
 81156-87-8,LLK, C,7.1,PE,(E)-1-Azetidino-1-butene,"Muller, Previdoli, et al., 1981"
 13669-28-8,Vertical value; , C,8.36,PE,1-Methyl-4-methylidenepiperidine,"Spanka and Rademacher, 1986"
 2424-01-3,Vertical value, C,8.4 ¡À 0.3,PE,Methyldiallylamine,"Peel and Willett, 1977"
 4840-12-4,Vertical value, C,7.46,PE,"1-Cyclopenten-1-amine,N,N-dimethyl-","Brown, 1976"
 81156-88-9,LLK, C,6.9,PE,1-Azetidino-isobutene,"Muller, Previdoli, et al., 1981"
 13044-51-4,Vertical value, C,8.17 ¡À 0.05,PE,"2-Cyclopenten-1-amine,N,N-dimethyl-","McAlduff, Caramella, et al., 1978"
 2228-27-5,, C,8.7 ¡À 0.1,EI,"2(1H)Pyrimidinone,4-(dimethylamino)-1-methyl-","Verkin, Sukodub, et al., 1976"
 280-38-6,Vertical value, C,8.22 ¡À 0.05,PE,2-Azabicyclo[2.2.2]octane,"Morishima, Yoshikawa, et al., 1975"
 931-53-3,RDSH, C,10.72 ¡À 0.05,EI,cyclohexyl isocyanide,"Distefano, Innorta, et al., 1968"
 13929-94-7,LLK, C,8.02,PE,1-Azabicyclo[2.2.2]oct-2-ene,"Brown, 1976"
 3693-58-1,Vertical value; , C,8.35 ¡À 0.05,PE,2-Azabicyclo[2.2.2]oct-5-ene,"Morishima, Yoshikawa, et al., 1975"
 3731-38-2,Vertical value; , C,8.2,PE,1-Azabicyclo[2.2.2]octan-3-one,"Aue and Bowers, 1979"
 6642-21-3, , C,8,PE,"Crotonic acid, 2-acetamido-3-methyl-","Ajo, Casarin, et al., 1984"
 19615-27-1,, C,8.8,EI,"Pyridine, 1-acetyl-1,2,3,4-tetrahydro-","Schwarz and Bohlmann, 1973"
 3306-69-2,Vertical value, C,9.12,PE,"Cyclohexanecarboxylic acid, 4-amino-, lactam","Treschanke and Rademacher, 1985"
 61759-61-3,Vertical value, C,8.21,PE,"Carbamic acid, 1,3-butadienyl-, ethyl ester, (E)-","Overman, Taylor, et al., 1978"
 42282-85-9,, C,9.57,EI,"2,4-Azetidinedione, 3,3-diethyl-","Compernolle and DeSchryver, 1975"
 30144-12-8,, C,7.3,EI,"Pyrrole,1,3,4-trimethyl-","Sucrow, Bethke, et al., 1971"
 71017-41-9,Vertical value, C,8.6,PE,2-Azabicyclo[3.2.1]oct-6-ene,"Barraclough, Bilgic, et al., 1979"
 13474-70-9,LBLHLM, C,9.6,PE,"Bicyclo[2.2.1]heptane,1-bromo-","Honegger, Heilbronner, et al., 1985"
 100207-07-6, , C,8.9,PE,"1,2-Pentadiene, 1-bromo-4,4-dimethyl-","Elsevier, Vermeer, et al., 1985"
 54867-58-2, , C,8.08 ¡À 0.04,PE,"Phosphinothioic acid, diethyl-, o-propyl ester","Vilesov, Lopatin, et al., 1974"
 65388-53-6,LBLHLM, C,9.05,PE,"1-Chloro-4,4-dimethyl-2,3-pentadiene","Elsevier, Vermeer, et al., 1985"
 53093-41-7,, C,10.00 ¡À 0.02,PE,"Cyclopentanol,2-bromo-,acetate,cis-","Botter, Menes, et al., 1973"
 53093-42-8,, C,10.07 ¡À 0.02,PE,"Cyclopentanol,2-bromo-,acetate,trans-","Botter, Menes, et al., 1973"
 78521-95-6,Vertical value, C,9.2,PE,"7,8-Dioxabicyclo[4.2.1]nonane, 9-bromo-","Gleiter, Dobler, et al., 1984"
 930-80-3,LBLHLM, C,8.8,PE,"Bicyclo[2.2.1]heptane, 1-iodo-","Della, Abeywickrema, et al., 1984"
 57173-48-5,LBLHLM, C,9,EI,"Bicyclo[2.2.1]heptane, 2-iodo-, endo-","Honegger, Heilbronner, et al., 1984"
 30983-85-8,LBLHLM, C,9,EI,"Bicyclo[2.2.1]heptane, 2-iodo-, exo-","Honegger, Heilbronner, et al., 1984"
 94137-73-2,Vertical value, C,8.78,PE,"1,2-Pentadiene, 1-iodo-4,4-dimethyl-","Elsevier, Vermeer, et al., 1985"
 7077-43-2,Vertical value, C,7.88,PE,"2-Diethylamino-1,3,2-dioxaphospholidine","Worley, Hargis, et al., 1982"
 4458-31-5,LLK, C,7.7,PE,"1-Propanamine, N,N-diethyl-","Aue and Bowers, 1979"
 5960-95-2,Vertical value; , C,8.55 ¡À 0.015,PE,4-Chloro-1-azabicyclo[2.2.2]octane,"Bieri and Heilbronner, 1974"
 42332-45-6,Vertical value; , C,8.8,PE,3-Chloro-1-azabicyclo[2.2.2]octane,"Aue and Bowers, 1979"
 81382-20-9,Vertical value, C,9.3 ¡À 0.1,PE,"2,8,9-Trioxa-5-aza-1-silabicyclo[3.3.3]undecan-3-one, 1-chloromethyl-","Peel and Dianxum, 1988"
 40626-78-6,, C,6.79,EI,"Pentyl, 1,1-dimethyl-","Lossing and Maccoll, 1976"
 3474-30-4,LL, C,6.95,DER,2-Heptyl radical,"Lias, Bartmess, et al., 1988"
 81568-85-6,LLK, C,8.5,EI,"Thiobenzamide, 2-iodo-","Grutzmacher, 1981"
 629-04-9,, C,9.81,EST,"Heptane, 1-bromo-","Luo and Pacey, 1992"
 64057-05-2,, C,7.35 ¡À 0.02,EI,"Manganese,(carbonothioyl)](1,2,3,4,5-¦Ç)-1-methyl-2,4-cyclopentadien-1-yl]iodonitrosyl-","Efraty and Huang, 1980"
 17333-79-8,LLK, C,7.28,DER,4-Methoxyphenyl diazenyl radical,"Nuyken and Messmer, 1977"
 51039-84-0,, C,8.3,EI,"Thiourea,(2-nitrophenyl)-","Baldwin, Loudon, et al., 1976"
 33989-27-4,, C,8.7 ¡À 0.2,EI,"Manganese, tetracarbonyl(phosphorus trifluoride)(trimethylsilyl)-","Saalfeld, McDowell, et al., 1973"
 80958-25-4,LBLHLM, C,10.2,PI,"2-Pentyne, 1,1,1-trifluoro-4,4-dimethyl-","Orlov, Boganov, et al., 1985"
 16584-00-2,LLK, C,8.54,PE,"2H-Benzotriazole, 2-methyl-","Leupin, Heilbronner, et al., 1980"
 2227-79-4,LLK, C,8.8,EI,Benzenecarbothioamide,"Grutzmacher, 1981"
 3356-67-0,, C,7.90 ¡À 0.06,EI,1-Heptyl radical,"Lossing and Maccoll, 1976"
 56911-27-4,Vertical value; , C,9.4,PE,"3,4-Cyclobutenopyridine","Aue and Bowers, 1979"
 100-69-6, , C,8.6,PE,"Pyridine, 2-ethenyl-","Modelli and Distefano, 1981"
 100-62-9, , C,8.5,PE,N-methyleneaniline,"Distefano, Giumanini, et al., 1985"
 100-43-6,LLK, C,8.9,PE,"Pyridine, 4-ethenyl-","Modelli and Distefano, 1981"
 65823-94-1, , C,7.1,PE,N-Methyl-3-formyl-2(1H)-pyridineselenone,"Dreier, Becher, et al., 1981"
 56911-25-2,Vertical value; , C,9.1,PE,"2,3-Cyclobutenopyridine","Aue and Bowers, 1979"
 1122-62-9,LLK, C,8.9,PE,"Ethanone, 1-(2-pyridinyl)-","Modelli and Distefano, 1981"
 350-03-8,LLK, C,9.1,PE,"Ethanone, 1-(3-pyridinyl)-","Modelli and Distefano, 1981"
 55-21-0,LLK, C,9.25,EI,Benzamide,"Elder, Beynon, et al., 1976"
 15228-31-6,Vertical value, C,7.41,PE,"Tungsten, pentacarbonyl(N-methylmethanamine)-(oc-6-22)-","Higginson, Lloyd, et al., 1974"
 103-70-8,Vertical value, C,8.6,PE,"Formamide, N-phenyl-","Zverev, 1992"
 1122-54-9,LLK, C,9.3,PE,"Ethanone, 1-(4-pyridinyl)-","Modelli and Distefano, 1981"
 93-60-7,LLK, C,9.25,PE,Methyl nicotinate,"Dougherty, Younathan, et al., 1978"
 99-08-1,LL, C,9.5 ¡À 0.1,PIPECO,"Benzene, 1-methyl-3-nitro-","Baer, Morrow, et al., 1988"
 88-72-2,LL, C,9.24,PIPECO,"Benzene, 1-methyl-2-nitro-","Shao and Baer, 1988"
 118-92-3,LLK, C,7.6,PE,"Benzoic acid, 2-amino-","Meeks, Wahlborg, et al., 1981"
 150-13-0,LBLHLM, C,8.3,EI,4-Aminobenzoic acid,"Tobita, Tajima, et al., 1984"
 99-99-0,LL, C,9.46 ¡À 0.05,PIPECO,"Benzene, 1-methyl-4-nitro-","Baer, Morrow, et al., 1988"
 99-05-8,LLK, C,7.8,PE,"Benzoic acid, 3-amino-","Meeks, Wahlborg, et al., 1981"
 701-57-5,Vertical value, C,8.59 ¡À 0.01,PE,Methyl 4-nitrophenyl sulphide,"Bernardi, Distefano, et al., 1975"
 622-46-8,Vertical value, C,9.14,PE,"Carbamic acid, phenyl ester","Overman, Taylor, et al., 1978"
 1516-21-8,Vertical value, C,9.5,PE,"Anisole, p-nitroso-","Palmer, Moyes, et al., 1979"
 66201-75-0,, C,7.91 ¡À 0.05,EI,"5H-Thiazolo[3,2-a]pyridin-5-one,2,3-dihydro-","Laerum and Undheim, 1978"
 62658-92-8, , C,8.2,PE,3-Formyl-2-methylthiopyridine,"Dreier, Becher, et al., 1981"
 61856-47-1, , C,7.5,PE,N-Methyl-3-formyl-2(1H)-pyridinethione,"Dreier, Becher, et al., 1981"
 15795-42-3,Vertical value; , C,8.84,PE,"Benzenamine, 4-methyl-N-sulfinyl-","Louwen, Van Dam, et al., 1982"
 15182-74-8, , C,8.75,PE,"Benzenamine, 2-methyl-N-sulfinyl-","Louwen, Van Dam, et al., 1982"
 23003-45-4,, C,7.12 ¡À 0.05,EI,"Thiazolo[3,2-a]pyridinium, 2,3-dihydro-8-hydroxy-, hydroxide, inner salt","Laerum and Undheim, 1978"
 79138-28-6, , C,8.2,PE,"3-Pyridinecarboxaldehyde, 1,2-dihydro-1-methyl-2-oxo-","Dreier, Becher, et al., 1981"
 100-17-4,LLK, C,8.79,PE,"Benzene, 1-methoxy-4-nitro-","Behan, Johnstone, et al., 1976"
 555-03-3,LLK, C,8.7,PE,"Benzene, 1-methoxy-3-nitro-","Kobayashi and Nagakura, 1975"
 91-23-6, , C,8.8,PE,"Benzene, 1-methoxy-2-nitro-","Kobayashi and Nagakura, 1975"
 6264-93-3,RDSH, C,9.43 ¡À 0.02,EI,"2,4,6-Cycloheptatrien-1-one, 2-amino-","Higasi, Nozoe, et al., 1957"
 15525-32-3,, C,7.5 ¡À 0.1,EI,Triethylphosphite(p)iron carbonyl dinitrosyl,"Foffani, Pignataro, et al., 1967"
 623-11-0,Vertical value; , C,8.8 ¡À 0.1,PE,"Benzene, 1-methyl-4-nitroso-","Egdell, Green, et al., 1975"
 556-18-3,RDSH, C,8.25 ¡À 0.02,EI,4-aminobenzaldehyde,"Foffani, Pignataro, et al., 1964"
 624-31-7,LBLHLM, C,8.08,PE,"Benzene, 1-iodo-4-methyl-","Baidin, Misharev, et al., 1985"
 625-95-6,LLK, C,8.6 ¡À 0.1,EI,"Benzene, 1-iodo-3-methyl-","Tajima and Tsuchiya, 1972"
 696-62-8,, C,7.97,PE,p-Iodoanisole,"Behan, Johnstone, et al., 1976"
 615-37-2,LBLHLM, C,8.4,PE,"Benzene, 1-iodo-2-methyl-","Baidin, Misharev, et al., 1985"
 629-06-1,, C,10.15,EST,"Heptane, 1-chloro-","Luo and Pacey, 1992"
 620-05-3,LL, C,8.73 ¡À 0.02,PI,"Benzene, (iodomethyl)-","Traeger and Kompe, 1990"
 62635-52-3,, C,8.15,EI,"Thiourea,(2-iodophenyl)-","Baldwin, Loudon, et al., 1976"
 13114-93-7,, C,8.3,EI,"Urea,(2-iodophenyl)-","Baldwin, Loudon, et al., 1976"
 12078-33-0,RDSH, C,8.32 ¡À 0.02,PE,¦Ç,"Dewar and Worley, 1969"
 61097-65-2, , C,7.8,PE,"Thiirane, 2,2-dimethyl-3-(1-methylethylidene)-","Kindermann, Poppek, et al., 1990"