CAS,Comment,Formula,IE,Method,Name,Refer
 12589-02-5,, BSi,7.8,EI,Boron silicide,"Verhaegen, Stafford, et al., 1964"
 12380-47-1,, BPt,10. ¡À 1.,EI,Platinum monoboride,"McIntyre, Auwera-Mahieu, et al., 1968"
 54597-36-3,, BBaO,10.8 ¡À 0.2,EI,Barium boron dioxide,"Il'in, Makarov, et al., 1974"
 7440-42-8,LL, B,8.29803,EVAL,boron,"Lide, 1992"
 7787-49-7,LLK, BeF,14.5 ¡À 1.0,EI,beryllium fluoride,"Farber and Srivastava, 1974"
 5961-98-8,, CClNS,10.45 ¡À 0.02,PE,Chlorine thiocyanate,"Frost, MacDonald, et al., 1981"
 13858-09-8,LLK, CClNO,10.72 ¡À 0.01,PE,Chlorine isocyanate,"Frost, MacDonald, et al., 1980"
 75-71-8,LBLHLM, CCl,12.26 ¡À 0.02,PI,Dichlorodifluoromethane,"Kischlat and Morgner, 1985"
 421-58-9,Vertical value, CCl,10.7,PE,"Phosphonous dichloride, (trifluoromethyl)-","Cowley, Dewar, et al., 1975"
 1691-90-3,LL, CCl,12. ¡À 1.,DER,Dichlorofluoromethyl radical,"Langford and Harris, 1990"
 80039-76-5,Vertical value, CClNSe,10.19 ¡À 0.02,PE,Selenium chloride cyanide,"Jonkers, Mooyman, et al., 1981"
 3170-80-7,LL, CCl,8.06 ¡À 0.02,PE,Trichloromethyl radical,"Robles and Chen, 1994"
 75-69-4,LBLHLM, CCl,11.73 ¡À 0.02,PI,Trichloromonofluoromethane,"Kischlat and Morgner, 1985"
 1495-36-9, , CCl,11.5,PE,"Trichlorogermane, trifluoromethyl-","Drake, Gorzelska, et al., 1982"
 1112-03-4,Vertical value, CCl,10.65,PE,Phosphonous difluoride (trichloromethyl)-,"Lappert, Pedley, et al., 1975"
 118436-67-2,, CClN,7.73,PE,"1,2,3,5-Dithiadiazolyl radical, 4-chloro-","Boere, Oakley, et al., 1989"
 52323-02-1,, CClP,10.05,PE,"Phosphine, (chloromethylidyne)-","Lacombe, Pfister-Guillouzo, et al., 1991"
 506-77-4,RDSH, CClN,12.37,PE,Cyanogen chloride,"Lake and Thompson, 1970"
 1605-72-7,LL, CCl,9.27 ¡À 0.04,PE,Dichloromethylene,"Kohn, Robles, et al., 1993"
 75-44-5,LLK, CCl,~11.2,PE,Phosgene,"Thomas and Thompson, 1972"
 463-71-8,LLK, CCl,9.68,PE,Thiophosgene,"Mines, Thomas, et al., 1973"
 56-23-5,LBLHLM, CCl,11.5 ¡À 0.1,EI,Carbon Tetrachloride,"Kime, Driscoll, et al., 1987"
 135113-16-5,LL, C,7.1,DTI,Fullerene-C84,"Beck, Weis, et al., 1994"
 3889-76-7,LBLHLM, CCl,8.9 ¡À 0.2,PE,Chloromethylidyne,"Hepburn, Trevor, et al., 1982"
 1691-88-9,LL, CClF,12. ¡À 1.,DER,Chlorofluoromethylene,"Langford and Harris, 1990"
 1495-18-7,Vertical value, CClFS,10.2,PE,Carbonothioic chloride fluoride,"Wittel, Hass, et al., 1972"
 421-17-0,, CClF,10.7 ¡À 0.1,EI,"Methanesulfenyl chloride, trifluoro-","Cullen, Frost, et al., 1969"
 75-72-9,LL, CClF,13. ¡À 1.,PI,Chlorotrifluoromethane,"Zhang, Cooper, et al., 1991"
 1691-89-0,LL, CClF,13. ¡À 1.,DER,Chlorodifluoromethyl radical,"Langford and Harris, 1990"
 140925-89-9,, C,7.1 ¡À 0.1,IMB,Fullerene-C56,"McElvany and Bach, 1991"
 3582-11-4,Vertical value, CCl,10.25,PE,"Phosphonous dichloride, (trichloromethyl)-","Lappert, Pedley, et al., 1975"
 61279-73-0,RDSH, Be,10.7 ¡À 0.4,EI,Beryllium oxide,"Theard and Hildenbrand, 1964"
 28867-06-3,Vertical value, C,8.19,PE,"Pyridine,4-(trimethylsilyl)-,1-oxide","Weiner and Lattman, 1974"
 51944-66-2,, C,8.8 ¡À 0.1,EI,"Morpholine,4-(1-oxo-2-butenyl)-","Mathar, Bohlmann, et al., 1973"
 131179-08-3, , C,8.3,PE,"7-Azabicyclo[2.2.1]heptane-7-carboxylic acid, methyl ester","Altenbach, Constant, et al., 1991"
 532-24-1,Vertical value, C,8.64,PE,Tropinone,"Spanka and Rademacher, 1986"
 28867-09-6,Vertical value, C,8.04,PE,"Pyridine,4-(trimethylstannyl)-,1-oxide","Weiner and Lattman, 1974"
 51944-65-1,, C,9.0 ¡À 0.1,EI,"Pyrrolidine,1-(1-oxo-2-butenyl)-","Mathar, Bohlmann, et al., 1973"
 18301-46-7,Vertical value, C,9.30 ¡À 0.05,PE,"Pyridine,4-(trimethylsilyl)-","Heilbronner, Hornung, et al., 1972"
 873-95-0,Vertical value; , C,8.55,PE,"2-Cyclohexenone,3-amino,5,5-dimethyl-","Pfister-Guillouzo, Geribaldi, et al., 1982"
 13737-04-7,Vertical value, C,8.90 ¡À 0.05,PE,"Pyridine,2-(trimethylsilyl)-","Heilbronner, Hornung, et al., 1972"
 74331-49-0, , C,7.8,PE,1-Azabicyclo[3.3.2]nonan-2-one,"Treschanke and Rademacher, 1985"
 589-33-3,, C,7.87 ¡À 0.02,PI,"1H-Pyrrole, 1-butyl-","Potapov and Yuzhakova, 1970"
 1809-53-6,, C,8,EI,"1-Buten-3-yn-1-amine, N,N-diethyl-","Plotnikov, Bogolyubov, et al., 1969"
 71245-79-9,Vertical value, C,9.6,PE,"8,9-Dioxabicyclo[5.2.1]decane, 10-bromo-","Gleiter, Dobler, et al., 1984"
 3693-61-6,Vertical value, C,7.97 ¡À 0.05,PE,"2-Azabicyclo[2.2.2]oct-5-ene,2-methyl-","Morishima, Yoshikawa, et al., 1975"
 5398-58-3,, C,7.95 ¡À 0.05,EI,"1H-Pyrrole,2-(1,1-dimethylethyl)-","Linda, Marino, et al., 1971"
 51787-59-8,Vertical value, C,8.76,PE,9-Azabicyclo[4.2.1]non-7-ene,"Schmidt, Schweig, et al., 1974"
 56125-92-9,Vertical value, C,8.18,PE,"2-Azabicyclo[3.2.1]oct-6-ene,2-methyl)-","Barraclough, Bilgic, et al., 1979"
 56125-90-7,Vertical value, C,7.36,PE,"2-Azabicyclo[3.2.1]oct-3-ene,2-methyl)-","Barraclough, Bilgic, et al., 1979"
 7697-09-8,LBLHLM, C,9.4 ¡À 0.1,PE,"Bicyclo[2.2.2]octane, 1-bromo-","Della, Abeywickrema, et al., 1984"
 931-98-6,LBLHLM, C,8.7,PE,"Bicyclo[2.2.2]octane, 1-iodo-","Della, Abeywickrema, et al., 1984"
 37739-98-3,Vertical value, C,8.45,PE,"1H-Phosphole,1-butyl-","Schafer, Schweig, et al., 1976"
 28867-08-5,Vertical value, C,8.12,PE,"Pyridine,4-(trimethylgermyl)-,1-oxide","Weiner and Lattman, 1974"
 69320-68-9,Vertical value, C,7.9,PE,"1-Aza-3,5-disilacyclohexane,1,3,3,5,5-pentamethyl-","Bock, Kaim, et al., 1979"
 90274-16-1,Vertical value, C,7.57,PE,"Boranediamine, 2-tert-butyl-1,1,3,3-tetramethyl-","Noth and Prigge, 1986"
 15199-24-3,Vertical value, C,8.13 ¡À 0.10,PE,"4,N,N',N""-Tetramethyl-2,6,7-triaza-1-phosphabicyclo[2.2.2]octane-1-borane","Cowley, Lattman, et al., 1982"
 31741-76-1, , C,7.78 ¡À 0.01,EI,Cyclopentadienylmanganesedicarbonylthiocarbonyl,"Efraty, Huang, et al., 1975"
 12079-77-5,, C,7.66 ¡À 0.05,EI,"Tungsten,tricarbonyl(¦Ç","Krause and Bidinosti, 1975"
 4203-31-0,Vertical value, C,9.41 ¡À 0.05,PE,"Ethanone,2-diazo-(4-nitrophenyl)-","Modelli, Innorta, et al., 1980"
 3700-19-4,Vertical value, C,10,PE,"N,N-Bis(trifluoromethyl)aniline","Baker, May, et al., 1968"
 12079-65-1,LLK, C,7.6,PE,"Manganese, tricarbonyl(¦Ç5-2,4-cyclopentadien-1-yl)-","Calabro, Hubbard, et al., 1981"
 328-74-5,LBLHLM, C,8.59,PE,"Benzenamine, 3,5-bis(trifluoromethyl)-","Molder, Pikver, et al., 1983"
 12079-73-1,Vertical value, C,8.05,PE,"Rhenium, tricarbonyl(¦Ç","Calabro, Hubbard, et al., 1981"
 10545-36-5,Vertical value, C,7.93,PE,"Ethanamine, N-ethyl-N-[(trimethylsilyl)methyl]-","Bock, Kaim, et al., 1979"
 766-96-1,Vertical value, C,8.62,PE,"Benzene, 1-bromo-4-ethynyl-","Griebel, Hohlneicher, et al., 1974"
 932-87-6,Vertical value, C,8.65,PE,"Benzene, (bromoethynyl)-","Griebel, Hohlneicher, et al., 1974"
 5350-05-0,Vertical value; , C,9.1,PE,2-Bromobenzothiophene sulfone,"Bened, Durand, et al., 1982"
 16957-97-4,Vertical value; , C,9.4,PE,3-Bromobenzothiophene sulfone,"Bened, Durand, et al., 1982"
 56595-09-6,Vertical value, C,9.22,PE,"Quinazoline,4-fluoro-","Van Den Ham, Beerlage, et al., 1975"
 56595-08-5,Vertical value, C,9.15,PE,"Quinazoline,2-fluoro-","Van Den Ham, Beerlage, et al., 1975"
 1644-22-0,Vertical value, C,9.97,PE,Pentafluoroethoxybenzene,"Baker, May, et al., 1968"
 434-45-7,LLK, C,9.72,PI,"Ethanone, 2,2,2-trifluoro-1-phenyl-","McLoughlin and Traeger, 1979"
 57147-26-9,Vertical value; , C,8.95,PE,3-Bromobenzothiophene sulfoxide,"Bened, Durand, et al., 1982"
 57147-27-0,Vertical value; , C,9.1,PE,2-Bromobenzothiophene sulfoxide,"Bened, Durand, et al., 1982"
 12079-91-3,, C,7.3,EI,Cyclopentadienylchromium tricarbonyl,"Muller, 1969"
 932-88-7,Vertical value, C,8.55,PE,"Benzene, (iodoethynyl)-","Griebel, Hohlneicher, et al., 1974"
 38713-73-4, , C,7.9,PE,"1,3,4,6-Tetraazacycl[3.3.3]azine","Rossman, Leonard, et al., 1985"
 57877-83-5,Vertical value, C,7.45,PE,"1,2,4,3,5-Triazadiborolidine,4-(1,1-dimethylethyl)-1,2,3,5-tetramethyl-","Kroner, Nolle, et al., 1975"
 105-07-7,Vertical value; , C,10.1,PE,"Benzonitrile, 4-formyl-","Gal, Geribaldi, et al., 1985"
 28734-86-3,Vertical value, C,9.66,PE,"Cinnoline,hexafluoro-","Van Den Ham and Van Der Meer, 1973"
 56595-14-3,Vertical value, C,9.5,PE,"2,7-Naphthyridine,1,3,4,5,6,8-hexafluoro-","Van Den Ham, Beerlage, et al., 1975"
 25732-35-8,Vertical value, C,9.9,PE,"Phthalazine,hexafluoro-","Van Den Ham and Van Der Meer, 1973"
 21271-15-8,Vertical value, C,9.65,PE,"Quinoxaline,hexafluoro-","Van Den Ham and Van Der Meer, 1973"
 28734-87-4,Vertical value, C,9.43,PE,"Quinazoline,hexafluoro-","Van Den Ham and Van Der Meer, 1973"
 56595-12-1,Vertical value, C,~10.01,PE,"1,8-Naphthyridine,2,3,4,5,6,7-hexafluoro-","Van Den Ham, Beerlage, et al., 1975"
 85-41-6,Vertical value; , C,9.9,PE,Phthalimide,"Klasinc, Trinajstic, et al., 1980"
 4461-33-0,Vertical value, C,9.6,PE,Benzoyl isocyanate,"Zverev, Il'yasov, et al., 1991"
 619-65-8,LBLHLM, C,10,EI,"Benzoic acid, 4-cyano-","Tobita, Tajima, et al., 1984"
 91-56-5,Vertical value, C,8.98 ¡À 0.05,PE,"1H-Indole-2,3-dione","Galasso, Colonna, et al., 1977"
 61604-32-8,Vertical value, C,8.49,PE,Diruthenium tetrakis(trifluoroacetate),"Clark, Green, et al., 1989"
 77479-85-7, , C,6.9,PE,Ditungsten tetrakis(trifluoroacetate),"Bancroft, Pellach, et al., 1982"
 113662-26-3,Vertical value, C,8.61,PE,"Diruthenium tetrakis(trifluoroacetate), dinitrosyl-","Clark, Green, et al., 1989"
 36608-07-8,LBLHLM, C,8.07,PE,Dimolybdenum tetrakis(trifluoroacetate),"Bancroft, Pellach, et al., 1982"
 35449-91-3,Vertical value, C,9.99,PE,"Tetraphosphetane,tetrakis(pentafluoroethyl)-","Cowley, Dewar, et al., 1978"
 130871-93-1, , C,9.1,PE,"Bicyclo[2.2.1]hept-2-ene, 2-trifluoromethyl-","Wen, Hitchcock, et al., 1990"
 15219-90-6,, C,8.30 ¡À 0.10,EI,"Rhenium, pentacarbonyl(trimethylstannyl)-(oc-6-22)-","Harris and Spalding, 1980"
 16917-96-7,, C,7.7,PE,"Molybdenum, pentacarbonyl(trimethylphosphine)-","Yarbrough and Hall, 1978"
 15631-20-6,LLK, C,8.1,PE,"Molybdenum, pentacarbonyl(trimethylphosphite-p)-","Yarbrough and Hall, 1978"
 3463-21-6,Vertical value, C,10.6,PE,1-Ethoxysilatrane,"Cradock, Ebsworth, et al., 1975"
 100-29-8,, C,9.22 ¡À 0.15,EI,"Benzene, 1-ethoxy-4-nitro-","McLafferty and Schiff, 1969"
 621-52-3,, C,9.11 ¡À 0.15,EI,"Benzene, 1-ethoxy-3-nitro-","McLafferty and Schiff, 1969"
 3282-33-5,Vertical value, C,9.02 ¡À 0.05,PE,"Ethanone,1-(4-chlorophenyl)-2-diazo-","Modelli, Innorta, et al., 1980"
 50878-84-7,Vertical value, C,8.60 ¡À 0.05,PE,"Ethanone,1-(2-chlorophenyl)-2-diazo-","Modelli, Innorta, et al., 1980"
 26555-11-3,, C,7.9,PE,"Tungsten, pentacarbonyl(trimethylphosphine)-","Yarbrough and Hall, 1978"
 23003-43-2,LBLHLM, C,6.93 ¡À 0.05,PE,"Thiazolo[3,2-a]pyridinium, 2,3-dihydro-8-hydroxy-5-methyl-, hydroxide, inner salt","Pedersen and Undheim, 1984"
 39909-74-5,LBLHLM, C,8.2,PE,"Benzenamine, 3,5-dimethyl-N-sulfinyl-","Louwen, Van Dam, et al., 1982"
 71310-16-2,, C,7.93,EI,"Cyclopent[2,3]azirino[2,1-b]thiazol-7(4ah)-one,2,3-dihydro-4a-methyl-","Laerum and Undheim, 1978"
 71310-13-9,, C,7.69 ¡À 0.05,EI,"5H-Thiazolo[3,2-a]pyridin-5-one,2,3-dihydro-8-methyl-","Laerum and Undheim, 1978"
 35688-70-1,, C,8.03 ¡À 0.05,EI,"1,4-Oxathiino[3,2-b]pyridine,2,3-dihydro-6-methyl-","Gronneberg and Undheim, 1972"
 35688-69-8,, C,7.73 ¡À 0.05,EI,"2(1H)-Pyridinethione,1-ethenyl-3-hydroxy-6-methyl-","Gronneberg and Undheim, 1972"
 18225-17-7, , C,7.7,PE,"2,8-Dioxa-5-aza-1-silabicyclo[3.3.3]undecane, 1-methyl-","Brodskaya, Voronkov, et al., 1987"
 15910-74-4,Vertical value, C,8.36,PE,"Cyclohexanol,2-(dimethylamino)-,trans-","Brown, 1976"
 20431-82-7,Vertical value, C,8.64,PE,"Cyclohexanol, 2-(dimethylamino)-, cis-","Brown, 1976"
 33931-44-1,Vertical value, C,8.8,PE,"Propanamide, N,N-diethyl-2-methyl-","Domelsmith, Munchausen, et al., 1977"
 10315-98-7,Vertical value, C,8.46 ¡À 0.03,PE,4-Isobutylmorpholine,"Colonna, Distefano, et al., 1975"
 54722-72-4,Vertical value, C,8.27,PE,"2H-1,2-Oxazine,2-(1,1-dimethylethyl)tetrahydro-","Rademacher and Freckmann, 1978"
 3376-23-6,LLK, C,8.01,PE,"Methanamine, N-(phenylmethylene)-, N-oxide","Houk, Bimanand, et al., 1977"
 103-84-4,LLK, C,8.30 ¡À 0.10,PE,"Acetamide, N-phenyl-","Bouchoux, 1978"
 99-92-3,LLK, C,7.8 ¡À 0.1,PE,"Acetophenone, 4'-amino-","Egdell, Green, et al., 1975"
 613-93-4,, C,9.33 ¡À 0.05,EI,"Benzamide, N-methyl-","Thorstad, Undheim, et al., 1975"
 99-03-6,RDSH, C,8.6 ¡À 0.2,EI,3-Aminoacetophenone,"Chin and Harrison, 1969"
 103-90-2,, C,7.57 ¡À 0.02,EI,Acetaminophen,"Benezra and Bursey, 1972"
 81-20-9,LLK, C,9.17 ¡À 0.015,PE,"Benzene, 1,3-dimethyl-2-nitro-","Kobayashi and Nagakura, 1972"
 89-87-2,LLK, C,9.1,PE,"Benzene, 2,4-dimethyl-1-nitro-","Kobayashi and Nagakura, 1974"
 619-45-4,LLK, C,7.7,PE,"Benzoic acid, 4-amino-, methyl ester","Meeks, Wahlborg, et al., 1981"
 100-12-9,, C,9.71 ¡À 0.03,EI,"Benzene, 1-ethyl-4-nitro-","Baldwin, Carter, et al., 1982"
 614-80-2,, C,7.01 ¡À 0.02,EI,"Acetamide, N-(2-hydroxyphenyl)-","Benezra and Bursey, 1972"
 1570-45-2,, C,9.8 ¡À 0.1,EI,"4-Pyridinecarboxylic acid, ethyl ester","Stefanovic and Grutzmacher, 1974"
 612-22-6,LBLHLM, C,9.39 ¡À 0.03,EI,"Benzene, 1-ethyl-2-nitro-","Baldwin, Carter, et al., 1982"
 3424-93-9,Vertical value; , C,8.62,PE,p-Methoxybenzamide,"McAlduff, Lynch, et al., 1978"
 5813-86-5,Vertical value; , C,8.6,PE,m-Methoxybenzamide,"McAlduff, Lynch, et al., 1978"
 42715-30-0,, C,7.91 ¡À 0.05,EI,"3-Pyridinol, 2-(methylthio)-, acetate (ester)","Fjeldstad and Undheim, 1973"
 62054-70-0,, C,6.9,PE,"N,N-Dimethyl-N'-picrylhydrazine","Sato, Seki, et al., 1981"
 7369-50-8,LBLHLM, C,9.64 ¡À 0.03,EI,1-Ethyl-3-nitrobenzene,"Baldwin, Carter, et al., 1982"
 10541-83-0,LLK, C,7.3,PE,"Benzoic acid, 4-(methylamino)-","Meeks, Wahlborg, et al., 1981"
 1658-42-0,, C,9.40 ¡À 0.02,EI,Methyl 2-pyridylacetate,"Hvistendahl and Undheim, 1972"
 16089-67-1,Vertical value, C,7.76,PE,"Phenol, 4-[(methylimino)methyl]-N-oxide","Armen, Braunstein, et al., 1979"
 15228-32-7,Vertical value, C,7.41,PE,"Tungsten, pentacarbonyl(trimethylamine)-","Higginson, Lloyd, et al., 1974"
 39998-25-9,, C,9.52 ¡À 0.02,EI,methyl pyridine-3-acetate,"Hvistendahl and Undheim, 1972"
 29800-89-3,, C,9.62 ¡À 0.02,EI,methyl 4-pyridylacetate,"Hvistendahl and Undheim, 1972"
 83060-75-7, , C,8.3,PE,"7-Azabicyclo[2.2.1]heptadiene-7-carboxylic acid, methyl ester","Altenbach, Constant, et al., 1991"
 3400-12-2,, C,8.36 ¡À 0.05,EI,"Oxaziridine, 2-methyl-3-phenyl-","Thorstad, Undheim, et al., 1975"
 3376-32-7,, C,8.76 ¡À 0.05,EI,"Benzaldehyde, O-methyloxime","Thorstad, Undheim, et al., 1975"
 619-55-6,Vertical value; , C,9.14,PE,"Benzamide, 4-methyl-","McAlduff, Lynch, et al., 1978"
 65194-06-1,LLK, C,7.28,PE,"Methanaminium, N-2,4,6-cycloheptatrien-1-ylidene-N-hydroxy-hydroxide","Houk, Bimanand, et al., 1977"
 618-47-3,Vertical value; , C,9.11,PE,m-Toluamide,"McAlduff, Lynch, et al., 1978"
 308-48-5,LBLHLM, C,12.68,PE,"1,1'-Oxybis-(1,1,2,2,3,3,4,4,4-nona-fluorobutane)","Molder, Pikver, et al., 1983"
 3494-45-9,, C,6.8 ¡À 0.1,EI,4-Methoxybenzylradical,"Harrison, Kebarle, et al., 1961"
 405-97-0,, C,8.63,EI,"Benzene,2-fluoroethoxy-","Russell, Gross, et al., 1979"
 23306-42-5,LLK, C,8.2,PE,"Tungsten, pentacarbonyl(trimethylphosphite-p)-","Yarbrough and Hall, 1978"
 637-53-6,, C,8.2,EI,"Ethanethioamide, N-phenyl-","Baldwin, Loudon, et al., 1976"
 6789-38-4,Vertical value, C,8.45,PE,"9-Azabicyclo[4.2.1]nona-2,4,7-triene","Schmidt, Schweig, et al., 1974"
 696-18-4,LBLHLM, C,8.0 ¡À 0.1,PE,"Aziridine, 1-phenyl-","Rozeboom, Houk, et al., 1982"
 496-15-1,LLK, C,7.15 ¡À 0.02,PE,"1H-Indole, 2,3-dihydro-","Maier and Turner, 1973"
 533-37-9,Vertical value; , C,9.15,PE,"5H-1-Pyrindine, 6,7-dihydro-","Aue and Bowers, 1979"
 14126-94-4, , C,8.24 ¡À 0.11,EI,"Manganese, pentacarbonyl(trimethylstannyl)-","Harris and Spalding, 1980"
 26500-16-3, , C,8.47,PE,"Manganese, pentacarbonyl(trimethylsilyl)-","Harris and Spalding, 1980"
 622-29-7,LLK, C,8.77,PE,"Methanamine, N-(phenylmethylene)-","Bally, Haselbach, et al., 1976"
 533-35-7,Vertical value; , C,9.19,PE,"6,7-dihydro-5H-2-pyrindine","Aue and Bowers, 1979"
 98-94-2,LLK, C,7.5,PE,"Cyclohexanamine, N,N-dimethyl-","Brown, 1976"
 39198-81-7,Vertical value, C,8.17 ¡À 0.03,PE,N-(2-Methylpropyl)pyrrolidine,"Colonna, Distefano, et al., 1975"
 57147-28-1,Vertical value; , C,9.1,PE,2-Chlorobenzothiophene sulfoxide,"Bened, Durand, et al., 1982"
 63724-95-8,Vertical value; , C,8.95,PE,3-Chlorobenzothiophene sulfoxide,"Bened, Durand, et al., 1982"
 1003-84-5,LBLHLM, C,7.77 ¡À 0.05,PE,"1,4,4-Trimethylpiperidine","Rozeboom and Houk, 1982"
 19719-81-4,Vertical value, C,8.02,PE,1-Methyl-octahydroazocine,"Spanka, Boese, et al., 1987"
 2439-13-6,LBLHLM, C,7.77 ¡À 0.05,PE,"Piperidine, 1,2,6-trimethyl-, cis-","Rozeboom and Houk, 1982"
 16544-52-8,LBLHLM, C,7.66 ¡À 0.05,PE,"trans-1,3,5-Trimethylpiperidine","Rozeboom and Houk, 1982"
 14446-76-5,LBLHLM, C,7.63 ¡À 0.05,PE,"cis-1,3,5-Trimethylpiperidine","Rozeboom and Houk, 1982"
 18461-34-2,LLK, C,8,PE,"Chromium, pentacarbonyl(trimethyl phosphite-P)-, (OC-6-22)-","Yarbrough and Hall, 1978"
 26555-09-9, , C,7.6,PE,"Chromium, pentacarbonyl(trimethylphosphine)-","Yarbrough and Hall, 1978"
 589-10-6,, C,8.42,EI,"Benzene, (2-bromoethoxy)-","Russell, Gross, et al., 1979"
 30954-73-5,, C,7.85 ¡À 0.05,EI,"Thiourea,N-(2-chlorophenyl)-N'-methyl-","Baldwin, Loudon, et al., 1976"
 53088-51-0,Vertical value, C,7.25,PE,"1H-1,3,2-Diazaborole,2-(1,1-dimethylethyl)-2,3-dihydro-1,3-dimethyl-","Kroner, Noth, et al., 1974"
 15500-96-6,, C,8.35 ¡À 0.05,EI,"Urea, N-(2-chlorophenyl)-N'-methyl-","Baldwin, Loudon, et al., 1976"
 21211-29-0,Vertical value; , C,9.45,PE,3-Chlorobenzothiophene sulfone,"Bened, Durand, et al., 1982"
 10133-41-2,Vertical value; , C,9.25,PE,2-Chlorobenzothiophene sulfone,"Bened, Durand, et al., 1982"
 34820-80-9,Vertical value, C,8.37 ¡À 0.05,PE,4-Methoxybenzyl mercuric chloride,"Baidin, Timoshenko, et al., 1985"
 622-61-7,, C,8.46 ¡À 0.15,EI,"Benzene, 1-chloro-4-ethoxy-","McLafferty and Schiff, 1969"
 622-86-6,, C,8.5,EI,"Benzene, (2-chloroethoxy)-","Russell, Gross, et al., 1979"
 19224-35-2,Vertical value, C,8.63 ¡À 0.05,PE,3-Methylbenzyl mercuric chloride,"Baidin, Timoshenko, et al., 1985"
 2655-83-6,, C,8.59 ¡À 0.15,EI,"Benzene, 1-chloro-3-ethoxy-","McLafferty and Schiff, 1969"
 111-85-3,, C,9.99,EST,"Octane, 1-chloro-","Luo and Pacey, 1992"
 620-19-9,LLK, C,8.82 ¡À 0.03,PI,"Benzene, 1-(chloromethyl)-3-methyl-","Ponomarev, Takhimova, et al., 1974"
 104-82-5,LLK, C,8.79 ¡À 0.03,PI,"Benzene, 1-(chloromethyl)-4-methyl-","Ponomarev, Takhimova, et al., 1974"
 103-63-9,, C,9.0 ¡À 0.1,EI,"Benzene, (2-bromoethyl)-","Grutzmacher, 1970"
 15228-26-9,Vertical value, C,7.45,PE,"Chromium, pentacarbonyl(trimethylamine)-","Higginson, Lloyd, et al., 1974"
 2348-51-8,LL, C,6.9,DER,1-Phenylethyl radical,"Lias, Bartmess, et al., 1988"
 2348-52-9,LBLHLM, C,6.96 ¡À 0.02,PE,4-Methylbenzyl radical,"Hayashibara, Kruppa, et al., 1986"
 2348-47-2,LBLHLM, C,7.12 ¡À 0.02,PE,3-Methylbenzyl radical,"Hayashibara, Kruppa, et al., 1986"
 2348-48-3,LBLHLM, C,7.07 ¡À 0.02,PE,2-Methylbenzyl radical,"Hayashibara, Kruppa, et al., 1986"
 111-83-1,, C,9.71,EST,"Octane, 1-bromo-","Luo and Pacey, 1992"
 1835-49-0,Vertical value; , C,10.65,PE,"1,4-Benzenedicarbonitrile, 2,3,5,6-tetrafluoro-","Neijzen and DeLange, 1978"
 1835-65-0,Vertical value, C,10.6,PE,Tetrafluorophthalonitrile,"Neijzen and DeLange, 1978"
 53088-52-1,Vertical value; , C,7.46,PE,"1,3,2-Diazaborolidine,2-(1,1-dimethylethyl)-1,3-dimethyl-","Noth and Prigge, 1986"
 24411-61-8,Vertical value; , C,8.75,PE,"Phosphonamidous chloride, N,p-bis(1,1-dimethylethyl)-","Elbel, Ellis, et al., 1985"
 110-96-3,LLK, C,7.8,PE,"1-Propanamine, 2-methyl-N-(2-methylpropyl)-","Aue and Bowers, 1979"
 111-92-2,RDSH, C,7.69 ¡À 0.03,PI,"1-Butanamine, N-butyl-","Watanabe and Mottl, 1957"
 111-86-4,LLK, C,8.5,PE,1-Octanamine,"Aue and Bowers, 1979"
 626-23-3,LLK, C,7.6,PE,"2-Butanamine, N-(1-methylpropyl)-","Aue and Bowers, 1979"
 17882-91-6,Vertical value, C,8.36,PE,"Methanamine, 1-(trimethylsilyl)-N-[(trimethylsilyl)methyl]-","Bock, Kaim, et al., 1979"
 298-04-4,Vertical value, C,9,PE,Disulfoton,"Betteridge, Thompson, et al., 1972"