CAS,Comment,Formula,IE,Method,Name,Refer
 594-61-6,Vertical value; , C,10.9 ¡À 0.1,SI,"Propanoic acid, 2-hydroxy-2-methyl-","Gol'denfel'd, Korostyshevskii, et al., 1973"
 5981-06-6,, C,9.62,EI,"1,3,5-Trioxepane","Collin and Conde, 1966"
 1600-44-8,LLK, C,9.07 ¡À 0.05,EI,"Thiophene, tetrahydro-, 1-oxide","Distefano, Foffani, et al., 1971"
 926-67-0,Vertical value; , C,8.82,PE,"Thioacetic acid, O-ethyl ester","Flamini, Semprini, et al., 1975"
 19858-14-1,LBLHLM, C,8.4,PE,"Thiirane, (methoxymethyl)-","Rodin, Chistyakov, et al., 1985"
 107-92-6,LBLHLM, C,10.17 ¡À 0.05,PIPECO,Butanoic acid,"Butler, Fraser-Monteiro, et al., 1982"
 123-91-1,LBLHLM, C,9.19 ¡À 0.01,PIPECO,"1,4-Dioxane","Fraser-Monteiro, Fraser-Monteiro, et al., 1982"
 554-12-1,LBLHLM, C,10.15,PI,Methyl propionate,"Traeger, 1985"
 110-74-7,LLK, C,10.3 ¡À 0.2,CEMS,"Formic acid, propyl ester","Jalonen, Tedder, et al., 1980"
 505-22-6,RDSH, C,10.33,EI,"1,3-Dioxane","Collin and Conde, 1966"
 79-31-2,LLK, C,10.12,EI,"Propanoic acid, 2-methyl-","Holmes and Lossing, 1980"
 625-55-8,LLK, C,10.44 ¡À 0.05,PE,"Formic acid, 1-methylethyl ester","Benoit, Harrison, et al., 1977"
 930-37-0,LBLHLM, C,9.5,PE,"Oxirane, (methoxymethyl)-","Rodin, Chistyakov, et al., 1985"
 5878-19-3,Vertical value; , C,9.66,PE,"2-Propanone, 1-methoxy-","Olivato, Guerrero, et al., 1984"
 126-33-0,LBLHLM, C,9.8,PE,"Thiophene, tetrahydro-, 1,1-dioxide","Aitken, Gosney, et al., 1984"
 141-78-6,LBLHLM, C,10.01 ¡À 0.05,PIPECO,Ethyl Acetate,"Fraser-Monteiro, Fraser-Monteiro, et al., 1982"
 54697-52-8,LLK, C,9.5,PE,"Thiirane,-1,1-dioxide, 2,3-dimethyl, cis-","Muller, Schweig, et al., 1975"
 453-20-3,Vertical value, C,9.77,PE,"3-Furanol, tetrahydro-","Yu, Kim, et al., 1992"
 5703-46-8,Vertical value; , C,10,PE,"1,2-Dioxane","Coughlin, Brown, et al., 1979"
 109-99-9,LL, C,9.38 ¡À 0.05,EI,Tetrahydrofuran,"Holmes and Lossing, 1991"
 6993-75-5,Vertical value; , C,10.6,PE,Acetic acid dimer,"Thomas, 1972"
 627-27-0,LBLHLM, C,9.56 ¡À 0.05,EI,3-Buten-1-ol,"Holmes and Lossing, 1983"
 558-30-5,LLK, C,10,PE,Isobutylene epoxide,"McAlduff and Houk, 1977"
 109-92-2,LBLHLM, C,~8.98,PE,"Ethene, ethoxy-","Morizur, Mercier, et al., 1982"
 106-88-7,Vertical value, C,10.15,PE,"Oxirane, ethyl-","McAlduff and Houk, 1977"
 116-11-0,LBLHLM, C,8.64,EI,"1-Propene, 2-methoxy-","Holmes and Lossing, 1982"
 6117-91-5,, C,9.13,PI,2-Buten-1-ol,"Traeger and McAdoo, 1986"
 513-42-8,LBLHLM, C,9.24,PI,"2-Propen-1-ol, 2-methyl-","Traeger and McAdoo, 1986"
 23169-87-1,, C,8.42,EI,"But-2-en-2-ol, (Z)-","Turecek, Brabec, et al., 1988"
 21490-63-1,Vertical value; , C,9.98,PE,"Oxirane, 2,3-dimethyl-, trans-","McAlduff and Houk, 1977"
 2919-23-5,LL, C,9.56 ¡À 0.02,PI,Cyclobutanol,"Bouchoux, Alcaraz, et al., 1994"
 61923-55-5,LBLHLM, C,8.6 ¡À 0.1,EI,1-Buten-2-ol,"Iraqi, Pri-Bar, et al., 1986"
 56640-70-1,LL, C,8.44,EI,"Prop-1-en-1-ol, 2-methyl-","Turecek, Brabec, et al., 1988"
 627-40-7,LBLHLM, C,9.56,EI,"1-Propene, 3-methoxy-","Holmes and Lossing, 1986"
 21451-76-3,, C,8.44,EI,"But-2-en-2-ol, (E)-","Turecek, Brabec, et al., 1988"
 598-32-3,LBLHLM, C,9.53,PI,3-Buten-2-ol,"Traeger and McAdoo, 1986"
 615-35-0,LLK, C,9.33,PE,"N,N'-Dimethyloxamide","Meeks and McGlynn, 1975"
 3465-99-4,Vertical value, C,7.73,PE,"Tellurophene, tetrahydro-","Pignataro and Distefano, 1974"
 106-98-9,LL, C,9.55 ¡À 0.06,PIPECO,1-Butene,"Van der Meij, Van Eck, et al., 1989"
 594-11-6,LL, C,9.30 ¡À 0.05,EI,Methylcyclopropane,"Holmes and Lossing, 1991"
 557-17-5,LBLHLM, C,9.41 ¡À 0.07,EI,Methyl propyl ether,"Bowen and Maccoll, 1984"
 71-36-3,LL, C,10.10 ¡À 0.05,EI,1-Butanol,"Holmes and Lossing, 1991"
 5314-83-0,, C,10.3 ¡À 0.1,EI,Chlorodiethylborane,"Lappert, Pedley, et al., 1966"
 20905-32-2,, C,10.52,EI,Chloro(diethoxy)borane,"Lappert, Litzow, et al., 1970"
 363-84-8,Vertical value, C,9.45,PE,"Phosphoramidous difluoride, diethyl-","Lappert, Pedley, et al., 1975"
 358-06-5,Vertical value, C,10.5,PE,"Silane, diethyldifluoro-","Roberge, Sandorfy, et al., 1978"
 597-35-3,LLK, C,9.96 ¡À 0.03,PI,Diethyl sulfone,"Evlasheva, Puchkova, et al., 1975"
 110-71-4,LBLHLM, C,9.3,PE,"Ethane, 1,2-dimethoxy-","Baker, Armen, et al., 1983"
 110-80-5, , C,9.6,PE,"Ethanol, 2-ethoxy-","Kimura, Katsumata, et al., 1981"
 534-15-6,RDSH, C,10. ¡À 10.,PI,"Ethane, 1,1-dimethoxy-","Watanabe, Nakayama, et al., 1962"
 75-91-2,Vertical value; , C,10.24,PE,tert-Butyl Hydroperoxide,"Batich and Adam, 1974"
 1320-67-8,LBLHLM, C,9.3,PE,methoxypropanol,"Biermann and Morton, 1983"
 4813-50-7,LLK, C,9.36 ¡À 0.03,PE,n-Butylperoxide,"Ashmore and Burgess, 1977"
 70-29-1,LLK, C,8.75 ¡À 0.03,EI,diethyl sulphoxide,"Potzinger, Stracke, et al., 1975"
 14094-09-8,, C,8.71 ¡À 0.04,EI,"Sulfoxide, isopropyl methyl-","Potzinger, Stracke, et al., 1975"
 149-73-5,LBLHLM, C,~9.5,EI,"Methane, trimethoxy-","Holmes and Lossing, 1982"
 623-81-4,RDSH, C,9.68,PI,"Sulfurous acid, diethyl ester","Watanabe, Nakayama, et al., 1962"
 78-83-1,LL, C,10.02 ¡À 0.05,PIPECO,"1-Propanol, 2-methyl-","Shao, Baer, et al., 1988"
 78-92-2,LL, C,9.88 ¡À 0.03,PIPECO,2-Butanol,"Shao, Baer, et al., 1988"
 60-29-7,LBLHLM, C,9.52 ¡À 0.07,EI,Ethyl ether,"Bowen and Maccoll, 1984"
 75-65-0,LL, C,9.90 ¡À 0.03,PIPECO,"2-Propanol, 2-methyl-","Shao, Baer, et al., 1988"
 26105-63-5,, C,9.0 ¡À 0.3,EI,Diethylditelluride,"Bogolyubov, Grishin, et al., 1969"
 107-01-7,Vertical value; , C,9.13,PE,2-Butene,"Kovac, Mohraz, et al., 1980"
 598-53-8,LL, C,9.5,PI,"Propane, 2-methoxy-","McAdoo, Traeger, et al., 1988"
 590-18-1,LBLHLM, C,9.13,PI,"2-Butene, (Z)-","Traeger, 1986"
 624-64-6,LBLHLM, C,9.09,PI,"2-Butene, (E)-","Traeger, 1986"
 115-11-7,LBLHLM, C,9.19,PI,"1-Propene, 2-methyl-","Traeger, 1986"
 57302-16-6,Vertical value, C,10.21,PE,"Butane, 2-bromo-3-fluoro-, (r*,s*)-","Gounelle, Menard, et al., 1975"
 598-71-0,Vertical value; , C,10.12,PE,"Erythro-2,3-dibromobutane","Gounelle, Menard, et al., 1975"
 110-52-1, , C,10.15,PI,"Butane, 1,4-dibromo-","Staley, Wieting, et al., 1977"
 287-23-0,LL, C,9.82 ¡À 0.05,EI,Cyclobutane,"Holmes and Lossing, 1991"
 627-54-3,RDSH, C,9.2 ¡À 0.3,EI,"1,1'-tellurobisethane","Bogolyubov, Grishin, et al., 1969"
 5780-13-2,Vertical value; , C,10.16,PE,"erythro-2,3-Dibromobutane","Gounelle, Menard, et al., 1975"
 82252-88-8,LL, C,7.95,DER,But-2-yn-1-yl radical,"Lias, Bartmess, et al., 1988"
 1871-73-4,Vertical value, C,10.32,PE,"Butane, 1-bromo-2-fluoro-","Gounelle, Menard, et al., 1975"
 19869-78-4,Vertical value, C,10.28,PE,"Propane, 1-bromo-2-fluoro-2-methyl-","Gounelle, Menard, et al., 1975"
 57302-15-5,Vertical value, C,10.91,PE,"Butane, 2-bromo-3-fluoro-, (r*,r*)-","Gounelle, Menard, et al., 1975"
 557-20-0,Vertical value; , C,8.6,PE,Diethylzinc,"Creber and Bancroft, 1980"
 542-63-2,, C,9.45 ¡À 0.05,EI,diethylberyllium,"Chambers, Coates, et al., 1969"
 106-97-8,LL, C,10.57,EST,Butane,"Luo and Pacey, 1992"
 75-28-5,LL, C,10.57,EST,Isobutane,"Luo and Pacey, 1992"
 56183-69-8,, C,7.95,PE,"Phosphorohydrazidic acid, diethyl ester","Zverev, Vilesov, et al., 1975"
 16842-03-8,RDSH, C,8.7 ¡À 0.1,EI,"Cobalt, tetracarbonylhydro-","Saalfeld, McDowell, et al., 1968"
 4095-06-1,LL, C,8.15 ¡À 0.03,PE,Methylenecyclopropene,"Staley and Norden, 1989"
 30980-97-3,Vertical value, C,8.74,PE,"Hydrazine, N,N-dimethyl-N'-dimethylboryl-","Fussstetter and Noth, 1981"
 2386-98-3,, C,7.76,PE,"3-Boranediamine, N,N,N',N'-tetramethyl-","Bock and Fuss, 1971"
 407-70-5,LLK, C,10.6 ¡À 0.1,EI,"1,1,4,4-Tetrafluoro-1,3-butadiene","Syrvatka, Gil'burd, et al., 1973"
 2809-92-9,LLK, C,10.4,PE,Perfluoro-tert-butylamine,"Aue and Bowers, 1979"
 2378-02-1,LBLHLM, C,12.25,PE,"1,1,1,3,3,3-Hexafluoro-2-(trifluoromethyl)-2-propanol","Koppel, Molder, et al., 1983"
 53214-97-4,, C,8.76 ¡À 0.02,PE,"1,3-Butadiyne, 1,4-diiodo-","Heilbronner, Hornung, et al., 1974"
 374-98-1,, C,9.96 ¡À 0.02,PI,"Butane, 1,1,1,2,2,3,3-heptafluoro-4-iodo-","Watanabe, Nakayama, et al., 1962"
 3141-27-3,Vertical value; , C,8.49,PE,"Thiophene, 2,5-dibromo-","Bozic, Humski, et al., 1977"
 3141-26-2,Vertical value; , C,8.94,PE,"Thiophene, 3,4-dibromo-","Bozic, Humski, et al., 1977"
 32936-74-6,Vertical value; , C,9.79,PE,"3-Cyclobutene-1,2-dione","Schang, Gleiter, et al., 1978"
 6088-90-0,, C,9.59 ¡À 0.02,PE,"1,3-Butadiyne, 1-bromo-","Heilbronner, Hornung, et al., 1974"
 696-82-2,Vertical value, C,10.93,PE,"Pyrimidine, 2,4,6-trifluoro-","Van den Ham, Van der Meer, et al., 1974"
 108-31-6,Vertical value; , C,11.07,PE,Maleic anhydride,"Kimura, Katsumata, et al., 1981"
 2802-61-1,Vertical value, C,10.65,PE,"Pyrimidine,2,4-difluoro-","Van den Ham, Van der Meer, et al., 1974"
 2802-62-2,Vertical value, C,10.95,PE,"Pyrimidine,4,6-difluoro-","Van den Ham, Van der Meer, et al., 1974"
 33097-39-1,, C,10.17,PE,"Pyridazine,3,6-difluoro-","Van den Ham, Van der Meer, et al., 1974"
 33873-09-5,Vertical value, C,10.3,PE,"Pyrazine,2,6-difluoro-","Van den Ham, Van der Meer, et al., 1974"
 52751-15-2,Vertical value, C,10.35,PE,"Pyrazine,2,3-difluoro-","Van den Ham, Van der Meer, et al., 1974"
 19259-08-6,Vertical value; , C,8.45,PE,"3,4-Diiodothiophene","Bozic, Humski, et al., 1977"
 625-88-7,LLK, C,8.35,CTS,"Thiophene, 2,5-diiodo-","Aloisi and Pignataro, 1973"
 78164-63-3,Vertical value, C,8.85,PE,"Pyrrole, 1-difluorophosphino-","Rankin and Wright, 1981"
 110-61-2,LBLHLM, C,12.1 ¡À 0.25,EI,Butanedinitrile,"Chess, Lapp, et al., 1982"
 289-95-2,LBLHLM, C,9.1,PE,"1,3-Diazine","Piancastelli, Keller, et al., 1983"
 289-80-5,LLK, C,8.64,PE,Pyridazine,"Gleiter, Heilbronner, et al., 1972"
 290-37-9,LBLHLM, C,9,PE,Pyrazine,"Piancastelli, Keller, et al., 1983"
 17043-94-6,LLK, C,8.80 ¡À 0.02,PE,Pyrimidine-1-oxide,"Maier, Muller, et al., 1975"
 3659-97-0,, C,10.52,PE,"1-Methyl-2,4,5-trioxoimidazolidine","Meeks, Arnett, et al., 1975"
 67-52-7,LLK, C,10.2,PE,Barbituric acid,"Dougherty, Younathan, et al., 1978"
 66-22-8,LLK, C,9.2,PE,Uracil,"Yu, O'Donnell, et al., 1981"
 2423-84-9,Vertical value, C,8.33 ¡À 0.02,PE,"Pyrazine, 1,4-dioxide","Maier, Muller, et al., 1975"
 5919-26-6,LLK, C,9.30 ¡À 0.05,EI,2-Nitropyrrole,"Linda, Marino, et al., 1971"
 19194-87-7,Vertical value, C,8.51 ¡À 0.02,PE,"Pyridazine,1,2-dioxide","Maier, Muller, et al., 1975"
 74706-98-2,, C,10.1,PE,"1,3-Butadiyne, 1-fluoro-","Bieri, Schmelzer, et al., 1980"
 1457-42-7,LLK, C,8.89 ¡À 0.02,PE,Pyridazine-1-oxide,"Maier, Muller, et al., 1975"
 557-01-7,LLK, C,10.06 ¡À 0.05,EI,2(1H)-Pyrimidinone,"Gacek, Thorstad, et al., 1978"
 2423-65-6,LLK, C,9,PE,Pyrazine-1-oxide,"Maier, Muller, et al., 1975"
 141-90-2,, C,8.8,PE,2-Thiouracil,"Katritzky and Szafrani, 1990"
 6088-91-1,, C,9.24 ¡À 0.02,PE,"1,3-Butadiyne, 1-iodo-","Heilbronner, Hornung, et al., 1974"
 922-67-8,LBLHLM, C,10.3,PE,"2-Propynoic acid, methyl ester","Bieri, Asbrink, et al., 1982"
 674-82-8,, C,9.6 ¡À 0.02,EI,"2-Oxetanone, 4-methylene-","Olivares, Flesch, et al., 1984"
 83809-87-4,, C,9.20 ¡À 0.03,PI,"1,2,4-Triazolo[5,1-c][1,2,4]triazine, 4,7-dihydro-6-nitro-7-oxo-","Rusinov, Ulomskii, et al., 1992"
 110-17-8, , C,10.7,PE,Fumaric Acid,"Kobayashi, Yokota, et al., 1975"
 128-08-5,Vertical value, C,10.12,PE,"2,5-Pyrrolidinedione, 1-bromo-","Worley, Gerson, et al., 1978"
 20825-71-2,Vertical value, C,10.7,PE,2(3H)-Furanone,"Bain and Frost, 1973"
 290-67-5,LLK, C,7.75 ¡À 0.02,PE,"1,4-Dioxin","Bloch, Brogli, et al., 1978"
 33689-28-0,Vertical value; , C,9.6,PE,"1,2-Cyclobutanedione","Gleiter, Schang, et al., 1985"
 110-00-9,LL, C,8.9,PE,Furan,"Klapstein, MacPherson, et al., 1990"
 1423-60-5,LBLHLM, C,10.25,EI,3-Butyn-2-one,"Burgers, Holmes, et al., 1982"
 103905-52-8,LBLHLM, C,8.92 ¡À 0.03,EI,1-Buten-3-yn-2-ol,"Turecek, Havlas, et al., 1986"
 33733-90-3,LBLHLM, C,9.4,EI,"Ethyne, 1-ethenyloxy-","Burgers, Holmes, et al., 1982"
 4883-96-9,LLK, C,9.15 ¡À 0.05,EI,"2-Cyclopropen-1-one, 2-methyl-","Holmes and Terlouw, 1979"
 1119-19-3,LLK, C,10.28,PE,2-Butynal,"Terlouw, Burgers, et al., 1979"
 59078-44-3,Vertical value; , C,8.78,PE,"Methanone, cyclopropylidene-","Bock, Hirabayashi, et al., 1981"
 50888-73-8,LLK, C,8.30 ¡À 0.05,EI,"1,3-Butadienal","Holmes and Terlouw, 1979"
 36998-21-7,LLK, C,~9.6,EI,Cyclopropene-carboxaldehyde,"Holmes and Terlouw, 1979"
 108-30-5,Vertical value, C,10.84,PE,Succinic anhydride,"Kimura, Katsumata, et al., 1981"
 32264-87-2,LBLHLM, C,9.3,EI,2-Cyclobutene-1-one,"Burgers, Holmes, et al., 1982"
 52844-23-2,LL, C,10.2,EST,But-3-ynal,"Takhistov and Ponomarev, 1994"
 3354-32-3,, C,9.78 ¡À 0.05,EI,2(5H)-Thiophenone,"Thorstad, Undheim, et al., 1975"
 53268-92-1,LLK, C,9.5,EI,"1,2-Butadienal","Holmes and Terlouw, 1979"
 34631-88-4,Vertical value, C,9.03,PE,"1,3-Thiazine-6-one-4-ol","Yakovlev, Mironova, et al., 1987"
 10545-58-1,, C,9.0695,S,"1,3-Butadiene, 1,1,4,4-tetradeutero-, (E)-","McDiarmid, 1976"
 78957-08-1,LBLHLM, C,8.68 ¡À 0.05,EI,"1,2-Butadienone","Terlouw, Holmes, et al., 1983"
 922-64-5,Vertical value, C,11.38 ¡À 0.05,PE,"Propanedinitrile, methylene-","Houk and Munchausen, 1976"
 928-53-0,LLK, C,11.15,PE,"2-Butenedinitrile, (2Z)-","Bock and Stafast, 1972"
 764-42-1,LLK, C,11.16 ¡À 0.03,PI,Fumaronitrile,"Kotov and Potapov, 1972"
 374-97-0,, C,11.84 ¡À 0.02,PI,"1,1,1,2,2,3,3-Heptafluoro-4-chlorobutane","Watanabe, Nakayama, et al., 1962"
 12002-28-7,, C,9.65,PE,"Iron dihydride, tetracarbonyl-","Guest, Higginson, et al., 1975"
 3172-52-9,LL, C,8.84,PE,"Thiophene, 2,5-dichloro-","Veszpremi, Nyulaszi, et al., 1988"
 17249-76-2,, C,9.05,PE,"Thiophene, 3,4-dichloro-","Veszpremi, Nyulaszi, et al., 1988"
 17249-75-1,, C,8.61,PE,"Thiophene, 2,4-dichloro-","Veszpremi, Nyulaszi, et al., 1988"
 17249-79-5,, C,8.77,PE,"Thiophene, 2,3-dichloro-","Veszpremi, Nyulaszi, et al., 1988"
 460-12-8,LLK, C,10.17,PE,"1,3-Butadiyne","Bieri, Schmelzer, et al., 1980"
 3912-37-6,, C,10.55,EI,4-Isothiazolecarbonitrile,"Salmona, Ferre, et al., 1971"
 290-82-4,Vertical value, C,8.1 ¡À 0.1,PE,"1,4-Thiaselenin","Colonna, Distefano, et al., 1980"
 288-05-1,LBLHLM, C,8.955,PE,Selenophene,"Reineck, Nohre, et al., 1983"
 288-08-4, , C,8.32,CTS,Tellurophene,"Aloisi, Santini, et al., 1975"
 51329-49-8,Vertical value, C,7.60 ¡À 0.05,PE,"Molybdenum, tetrakis[¦Ç-(formato-o:o')]di-, (mo-mo)","Coleman, Green, et al., 1979"
 290-79-9,LLK, C,7.7,PE,"1,4-Dithiin","Colonna, Distefano, et al., 1980"
 59434-05-8, , C,10.16,PE,"Thiophene, 2,5-dinitro-","Bajic, Humski, et al., 1985"
 5347-12-6,Vertical value, C,10.33,PE,"2,4-Dinitrothiophene","Bajic, Humski, et al., 1985"
 110-02-1,LBLHLM, C,8.85,PE,Thiophene,"Klasinc, Sabljic, et al., 1982"
 3354-41-4,Vertical value, C,8.23,PE,"3H-1,2-Dithiole-3-thione, 4-methyl-","Gonbeau, Guimon, et al., 1975"
 3354-40-3,Vertical value, C,8.25,PE,"3H-1,2-Dithiole-3-thione, 5-methyl-","Gonbeau, Guimon, et al., 1975"
 128-09-6,Vertical value, C,10.29,PE,N-Chlorosuccinimide,"Worley, Gerson, et al., 1978"
 3092-46-4,Vertical value, C,7.9 ¡À 0.1,PE,"1,4-Thiatellurin","Colonna, Distefano, et al., 1980"
 2873-50-9,LLK, C,9.25 ¡À 0.05,EI,"1,2,3-Butatriene","Rosenstock, McCulloh, et al., 1977"
 1120-53-2,LL, C,8.16 ¡À 0.03,PE,Cyclobutadiene,"Kohn and Chen, 1993"
 689-97-4,LLK, C,9.58 ¡À 0.02,EI,1-Buten-3-yne,"Rosenstock, McCulloh, et al., 1977"
 129066-33-7,, C,11.9 ¡À 0.5,EI,Cyanopropynylidene,"Dibeler, Reese, et al., 1961"
 52931-63-2,, C,9.0 ¡À 0.5,EI,Thorium tetracarbide,"Gupta and Gingerich, 1980"
 12603-31-5,LLK, C,4.7 ¡À 0.5,EI,Lanthanum tetracarbide,"Stearns and Kohl, 1971"
 12373-84-1,, C,7.6 ¡À 0.7,EI,Neodymium tetracarbide,"Balducci, Capalbi, et al., 1968"
 12547-95-4,LLK, C,6.7 ¡À 1.0,EI,Scandium tetracarbide,"Haque and Gingerich, 1981"
 12144-72-8,, C,7.7 ¡À 0.5,EI,Holmium tetracarbide,"Balducci, Capalbi, et al., 1969"
 37215-84-2,, C,11. ¡À 1.,EI,Lutetium tetracarbide,"Guido, Balducci, et al., 1972"
 12543-88-3,, C,8.8 ¡À 0.5,EI,Dysprosium tetracarbide,"Balducci, Capalbi, et al., 1969"
 12151-79-0,, C,6.2 ¡À 0.5,EI,Cerium tetracarbide,"Balducci, Capalbi, et al., 1969"
 13463-39-3,LBLHLM, C,~8.0,PE,Nickel tetracarbonyl,"Reutt, Wang, et al., 1986"
 12184-80-4,LL, C,12.54 ¡À 0.35,PE,Tetracarbon,"Ramathan, Zimmerman, et al., 1993"
 2285-06-5,Vertical value, C,9.4,PE,"Diazene, bis(pentafluorophenyl)-","Petrachenko, Vovna, et al., 1993"
 1800-29-9,Vertical value, C,9.53,PE,"Diazene, bis(pentafluorophenyl)-1-oxide","Petrachenko, Vovna, et al., 1993"
 38010-72-9,Vertical value, C,8.3 ¡À 0.1,PE,"Zirconium, tetrakis(2,2-dimethylpropyl)-","Lappert, Pedley, et al., 1974"
 61191-44-4,Vertical value, C,8.33,PE,"1,3-Cyclobutanediimine, n,n'-dicyclohexyl-2,2,4,4-tetramethyl","Behan, Johnstone, et al., 1977"
 72189-54-9,, C,7.7,PE,"1,1-Bis(trimethylsilyl)-2-(trimethylsiloxy)-2-(1-adamantyl)-1-silaethene","Brook, Nyburg, et al., 1982"
 31944-64-6,, C,8.7 ¡À 0.1,PI,"L-Histidine,N-[N-(1-oxodecyl)-L-alanyl]-methyl ester","Orlov, Varshavsky, et al., 1974"
 33781-73-6,Vertical value, C,7.72,PE,"Benzene, 1,3-bis(2,2-dimethylpropyl)-2,4,5,6-tetramethyl-","Howell, Goncalves, et al., 1984"
 33770-83-1,Vertical value, C,7.71,PE,"Benzene, 1,4-bis(2,2-dimethylpropyl)-2,3,5,6-tetramethyl-","Howell, Goncalves, et al., 1984"
 17557-10-7, , C,7.4,PE,"Silane(1,4-phenylenedimethylidene)tetrakis[trimethyl","Bock, Kaim, et al., 1978"
 6668-20-8,Vertical value, C,7.66,PE,"Benzene, 1,2-bis(2,2-dimethylpropyl)-3,4,5,6-tetramethyl-","Howell, Goncalves, et al., 1984"
 18724-34-0,, C,7.75,PE,"Silane,[1,4-phenylenebis(methylene)bis]triethyl-","Bock, Kaim, et al., 1978"
 55728-16-0,, C,9.1 ¡À 0.1,PI,"L-Alanine,N-[N-(1-oxodecyl)-L-¦Á-glutamyl]-dimethyl ester","Orlov, Varshavsky, et al., 1974"
 55946-68-4,Vertical value, C,6.75 ¡À 0.05,PE,"Molybdenum,tetrakis[¦Ì-(2,2-dimethylpropanoato-0:0']di-(mo-mo)","Coleman, Green, et al., 1979"
 66809-06-1,LLK, C,7.1,PE,"Tricyclo[1.1.0.0<sup>2,4</sup>]butane,tetrakis(t-butyl)","Heilbronner, Jones, et al., 1980"
 124592-82-1,Vertical value, C,5.47,PE,"Gallium, bis(N,N'-di-tert-butyl-1,4-diaza-1,3-butadiene)-","Cloke, Dalby, et al., 1991"
 50654-36-9,Vertical value, C,9.0 ¡À 0.1,PE,"Germane, tetrakis(2,2-dimethylpropyl)-","Lappert, Pedley, et al., 1974"
 13356-21-3,Vertical value, C,8.67,PE,"Stannane, tetrakis(2,2-dimethylpropyl)-","Kochi, 1980"
 86728-84-9,Vertical value, C,5.77,PE,Ditungsten tetrakis(dimethylpropionate),"Chisholm, Clark, et al., 1987"
 16069-36-6,LLK, C,8.6,PE,Dicyclohexano-18-crown-6,"Kajitani, Sugimori, et al., 1979"
 66809-05-0,LLK, C,5.9,PE,"1,3-Cyclobutadiene,1,2,3,4-tetrakis(t-butyl)","Heilbronner, Jones, et al., 1980"
 33512-45-7,, C,7,PE,"3,4,5-Octatriene, bis(1,1-dimethylethyl)-2,2,7,7-tetramethyl-","Brogli, Heilbronner, et al., 1974"
 131810-28-1,Vertical value, C,5.52,PE,"Aluminum, bis(N,N'-di-tert-butyl-1,4-diaza-1,3-butadiene)-","Cloke, Dalby, et al., 1991"
 36945-13-8,LLK, C,7.7,PE,Tetrakis(neopentyl)titanium,"Lappert, Pedley, et al., 1974"
 37007-84-4,Vertical value, C,7.3 ¡À 0.1,PE,"Chromium, tetrakis(2,2-dimethylpropyl)-","Evans, Green, et al., 1973"
 50654-35-8,LLK, C,8.1,PE,Tetrakis(neopentyl)hafnium,"Lappert, Pedley, et al., 1974"
 434-90-2,LLK, C,9.40 ¡À 0.02,PE,"1,1'-Biphenyl, 2,2',3,3',4,4',5,5',6,6'-decafluoro-","Maier and Turner, 1972"
 132365-62-9,, C,7.5,PE,"p,p-Bis(trifluoromethyl)-N-(triphenylphosphoranylidene)-phosphinous amide","Ang, Kwik, et al., 1993"
 15391-40-9,, C,7.41 ¡À 0.08,EI,"Nickel,[[2,2'-[iminobis(3,1-propanediylnitrilomethylidyne)bis[phenolato]](2-)-N,N',N"",o,o']-","Taylor and Dillard, 1974"
 50-48-6,LLK, C,8.26 ¡À 0.07,CTS,Amitriptyline,"Poltorakov, Pirnazarova, et al., 1973"
 63357-19-7,Vertical value, C,7.42,PE,"Cyclotetrasilane, 1,2,3,4-tetrakis(1-dimethylethyl)-1,2,3,4-tetramethyl-","Block, Biernbaum, et al., 1977"
 15391-22-7,, C,7.54 ¡À 0.08,EI,"Copper,[[2,2'-[iminobis(3,1-propanediylnitrilomethylidyne)]bis[phenolato]](2-)-N,N',N"",o,o']-","Taylor and Dillard, 1974"
 15306-22-6,, C,7.31 ¡À 0.07,EI,"Cobalt, ((2,2'-(iminobis(3,1-propanediylnitrilomethylidyne))bis(phenolato))(2-)-N,N',N'',o,o')-","Taylor and Dillard, 1974"
 32936-99-5,LBLHLM, C,10.8,PE,"1,1,2,2,3,3,4,4,5,5,6,6,7,7,8,8,9,9,10,10,11,11,12,12-Dodecafluorotetracyclopenta-[a,c,e,g]cyclooctatetraene","Heilbronner, Wirz, et al., 1984"