CAS,Comment,Formula,IE,Method,Name,Refer
 136868-15-0,Vertical value, C,7.75,PE,"Titanium, dimethyl-bis[(1,2,3,4,5-¦Ç)-1,2,3-trimethyl-2,4-cyclopentadien-1-yl)]","Vondrak, Mach, et al., 1992"
 24917-48-4,Vertical value; , C,7.17,PE,"Platinum, bis(p,p-dimethyl-phenylphosphine)dimethyl-","Yang, Bancroft, et al., 1990"
 123-01-3,, C,9.1 ¡À 0.1,EI,"Benzene, dodecyl-","King, 1965"
 604-88-6,Vertical value, C,7.71,PE,"Benzene, hexaethyl-","Howell, Goncalves, et al., 1984"
 82666-10-2,Vertical value, C,7.04,PE,"Bis(3,3-dimethyl-2-azabicyclo[2.2.2]oct-2-yl)diazene","Nelsen and Gannett, 1982"
 82666-07-7,Vertical value, C,6.8,PE,"Bis(3,3-dimethyl-2-azabicyclo[2.2.2]oct-2-yl)","Nelsen and Gannett, 1982"
 1460-02-2,RDSH, C,8.56 ¡À 0.07,EI,"Benzene, 1,3,5-tri-tert-butyl-","Arnett, Sanda, et al., 1967"
 732-26-3,LBLHLM, C,7.5,PE,"Phenol, 2,4,6-tri-tert-butyl-","Cetinkaya, Lappert, et al., 1983"
 2400-00-2,, C,9.0 ¡À 0.1,EI,"Benzene, (1-ethyldecyl)-","King, 1965"
 1459-11-6,RDSH, C,8.60 ¡À 0.07,EI,"1,2,4-Tri-tert-butylbenzene","Arnett, Sanda, et al., 1967"
 2622-14-2,Vertical value, C,7.75,PE,"Phosphine, tricyclohexyl-","Daamen, Oskam, et al., 1980"
 69020-17-3,Vertical value, C,7.25,PE,"Silane[(2,3,5,6-tetramethyl-1,4-phenylene)bis(methylene)]bis[trimethyl-","Bock and Kaim, 1978"
 12568-53-5,Vertical value, C,9.25 ¡À 0.02,PE,"Cobalt, decacarbonyl(ethynylbenzene)tetra-","Deshmukh, Dutta, et al., 1982"
 75102-20-4,Vertical value, C,7.5,PE,"1,4-Ethanoanthracene,1,4-dihydro-9,10-dimethoxy-","Paquette, Bellamy, et al., 1980"
 71591-81-6,Vertical value, C,8.6 ¡À 0.05,PE,"1,3-Propanedione,1-(4-methoxyphenyl)-2,2-dimethyl-3-phenyl-","McAlduff and Bunbury, 1979"
 55122-59-3, , C,7.1,PE,"[2.2]-Paracyclophane-2,5-dione, 2',5'-dimethoxy-","Gleiter, Schafer, et al., 1988"
 55076-10-3, , C,7.1,PE,"[2.2]-Paracyclophane-2,5-dione, 3',6'-dimethoxy-","Gleiter, Schafer, et al., 1988"
 55408-49-6,, C,8.2,EI,"2,3-Dicyanodibenzo(f,h)quinoxaline","Holzmann, Rothkopf, et al., 1975"
 4528-68-1,, C,8.8 ¡À 0.2,EI,"Cyclohexanone, 4,4-diphenyl-","Fortin, Forest, et al., 1973"
 23039-94-3,Vertical value, C,8.32,PE,Tris(3-fluorophenyl)phosphine,"Weiner, Lattman, et al., 1975"
 18437-78-0,Vertical value, C,8.12,PE,"Phosphine, tris(4-fluorophenyl)-","Weiner, Lattman, et al., 1975"
 207-11-4,, C,8.6 ¡À 0.1,EI,"Acenaphtho(1,2-b)quinoxaline","Gallegos, 1968"
 61695-74-7,Vertical value, C,7.43,PE,"Oxirane, 1-pyrenyl-","Akiyama, Li, et al., 1979"
 1159-54-2,Vertical value, C,8.18,PE,Tris(4-chlorophenyl)phosphine,"Weiner, Lattman, et al., 1975"
 193-44-2,, C,6.07,PE,Tetrathianaphthacene,"Sato, Seki, et al., 1981"
 15634-63-6,, C,7.90 ¡À 0.01,EI,"Iron, bis[¦Ì-(benzenethiolato)]hexacarbonyldi-, (Fe-Fe)","Junk, Preston, et al., 1970"
 226-65-3, , C,6,PE,"[1,2,4,5]Tetrazino[1,6-a:4,3-a']diisoquinoline","Lecoultre and Heilbronner, 1987"
 13090-26-1, , C,6.1,PE,"[1,2,4,5]-Tetrazino[1,6-a:4,3-a'])diquinoline","Lecoultre and Heilbronner, 1987"
 61135-78-2, , C,8.3,PE,"[2.2]-Paracyclophane, 2,5-dicyano-","Gleiter, Schafer, et al., 1988"
 74720-33-5,Vertical value, C,8.39,PE,"Piperazine-2,5-dione, 3,6-bis(phenylmethylene)-","Ajo, Casarin, et al., 1985"
 27313-56-0,Vertical value, C,8.06,PE,Tetracyclo[6.6.2.1,"Boschi and Schmidt, 1973"
 56-55-3,RDSH, C,7.5 ¡À 0.3,EI,Benz[a]anthracene,"Wacks, 1964"
 195-19-7,RDSH, C,7.86,CTS,Benzo[c]phenanthrene,"Briegleb, 1964"
 92-24-0,LBLHLM, C,6.97,EI,Naphthacene,"Stahl and Maquin, 1984"
 217-59-4,LLK, C,8.0 ¡À 0.2,EI,Triphenylene,"Shushan and Boyd, 1980"
 218-01-9,LLK, C,7.60 ¡À 0.03,PE,Chrysene,"Shahbaz, Akiyama, et al., 1981"
 63796-70-3,Vertical value, C,7.77,PE,"Iron, dicarbonylbis(methylphenylcarbamodithioato-s,s')-(oc-6-21)-","Cauletti, Duffy, et al., 1977"
 113-59-7,, C,7.68 ¡À 0.03,CTS,Chlorprothixene,"Fulton and Lyons, 1968"
 7396-38-5,LLK, C,7.8 ¡À 0.1,EI,"Phenanthrene, 2,4,5,7-tetramethyl-","Dougherty, Bertorello, et al., 1971"
 6114-58-5,, C,6.90 ¡À 0.10,EI,"Cyclopropanecarbonitrile, 2-[p-(dimethylamino)phenyl]-1-phenyl-","Lageot, 1971"
 107550-90-3, , C,5.8,PE,"5,12-Diethylbis(benzimidazolo)[1,2-b:1',2'-e][1,2,4,5]tetrazine","Lecoultre and Heilbronner, 1987"
 2040-73-5,LBLHLM, C,6.6,PE,[18]-Annulene,"Baumann, Bunzli, et al., 1982"
 7343-06-8,LLK, C,7.5 ¡À 0.1,EI,"Phenanthrene, 3,4,5,6-tetramethyl-","Dougherty, Bertorello, et al., 1971"
 13719-97-6,LBLHLM, C,7.13,PE,"Anthracene,9-(1,1-dimethylethyl)-","Klasinc, Kovac, et al., 1983"
 27165-88-4,Vertical value; , C,8.20 ¡À 0.05,PE,"[2.2.2](1,3,5)Cyclophane","Kovac, Mohraz, et al., 1980"
 55076-09-0, , C,7.2,PE,"[2.2]-Paracyclophane, 2,5-dimethoxy-3',6'-dinitro-","Gleiter, Schafer, et al., 1988"
 84954-88-1,LBLHLM, C,7.3,PE,"Tricyclo[8.2.2.2<sup>4,7</sup>]octadeca-4,6,10,12,13,15,17-heptaene-","Zhong-Zhi, Heilbronner, et al., 1984"
 58002-98-5,LLK, C,7.8,PE,"[2.2.2](1,2,4)Cyclophane","Kovac, Mohraz, et al., 1980"
 20264-62-4,Vertical value, C,8.06 ¡À 0.02,PE,"3,5,7,9,11-Tetradecapentayne, 2,2,13,13-tetramethyl-","Heilbronner, Jones, et al., 1978"
 17597-70-5,Vertical value, C,6.59,PE,"Cyclopenta[ef]heptalene,3,5,8,10-tetramethyl-","Bischof, Gleiter, et al., 1976"
 16819-47-9,, C,8.2,CTS,"2,5-Diphenyl-2,4-hexadiene","Briegleb and Czekalla, 1959"
 19909-64-9,Vertical value; , C,8.8,PE,"Butane-1,2,3,4-tetraone,1,4-di(4-methylphenyl)","Gleiter and Dobler, 1985"
 1272-49-7, , C,6.1,PE,"Iron, bis[(1,2,3,3a,7a-¦Ç)-1H-inden-1-yl]-","Crossley, Green, et al., 1989"
 1272-51-1, , C,6.5,PE,"Ruthenium, bis(¦Ç","Crossley, Green, et al., 1989"
 2240-47-3,Vertical value, C,7.95,PE,imidotriphenylphosphorus,"Starzewski and Dieck, 1979"
 3491-12-1,, C,6.6,PI,"Aniline, p,p'-(p-phenylenedioxy)di-","Pykhtina, Cherednichenko, et al., 1974"
 92-94-4,LLK, C,7.83,PE,p-Terphenyl,"Hino, Seki, et al., 1975"
 84-15-1,LBLHLM, C,8,PE,o-Terphenyl,"Kobayashi, 1983"
 92-06-8,LBLHLM, C,7.9,PE,m-Terphenyl,"Kobayashi, 1983"
 2175-90-8,Vertical value; , C,7.96,PE,"6,6-Diphenylfulvene","Houk, George, et al., 1974"
 32137-39-6,LBLHLM, C,7.5,PE,"Naphtho[1,8',8:c,d]cycloundeca-1,5-diyne","Gleiter, Schafer, et al., 1984"
 892-20-6,Vertical value, C,9.11 ¡À 0.05,PE,triphenyltin hydride,"Distefano, Pignataro, et al., 1976"
 53539-29-0,Vertical value, C,7.5,PE,"8,11-Epithio-5,14-ethenobenzocyclododecene,6,7,12,13-tetrahydro-","Kovac, Allan, et al., 1980"
 2816-43-5,Vertical value, C,9.15 ¡À 0.05,PE,triphenylgermanium,"Distefano, Pignataro, et al., 1976"
 789-25-3,LLK, C,8.4,PE,"Silane, triphenyl-","Distefano, Pignataro, et al., 1976"
 12095-46-4,, C,5.94 ¡À 0.05,EI,Benzenebiphenylchromium,"Herberich and Muller, 1969"
 24178-85-6,Vertical value, C,7.46,PE,"8,11-Epoxy-5,14-ethenobenzocyclododecene,6,7,12,13-tetrahydro-","Kovac, Allan, et al., 1980"
 103231-55-6,, C,7.81,EI,"Butane-1,3-dione, 1-phenyl-3-(4-methoxybenzoyl)","Orlov, Rashkes, et al., 1988"
 83944-24-5,LBLHLM, C,7.4,PE,"Pentacyclo[10.2.2.2<sup>5,8</sup>.0<sup>2,4</sup>.0<sup>9,11</sup>]octadeca-5,7,12,15,17-hexaene-","Gleiter, Eckert-Maksic, et al., 1982"
 956-84-3,, C,6.7,PE,"Pyrene,10b,10c-dihydro-10b,10c-dimethyl-,trans-","Boekelheide, Murrell, et al., 1972"
 28255-97-2,Vertical value, C,7.40 ¡À 0.05,PE,"11,1-Metheno-1H-cyclohepta[b]heptalene,11a,12,13,13a-tetrahydro-","Batich, Heilbronner, et al., 1974"
 109281-33-6, , C,7.3,PE,"Anti-7,14-dihydro-7,14-dimethylene-1,6:8,13-bismethano[14]annulene","Gleiter, Dobler, et al., 1987"
 1720-32-7,RDSH, C,7.6,CTS,"Benzene, 1,1'-(1,3,5-hexatriene-1,6-diyl)bis-","Briegleb and Czekalla, 1959"
 109216-46-8, , C,7.7,PE,"Syn-7,14-dihydro-7,14-dimethylene-1,6:8,13-bismethano[14]annulene","Gleiter, Dobler, et al., 1987"
 137232-07-6,LL, C,7.07 ¡À 0.10,IMB,c58-Fullerene,"Zimmerman and Eyler, 1991"
 24386-06-9,Vertical value; , C,6.91,PE,"Bisnaphtho[1',2':5,6]phenanthro[3,4-c:4',3'-g]phenanthrene","Obenland and Schmidt, 1975"
 57468-45-8,Vertical value; , C,6.95,PE,"Bisbenzo[5,6]phenanthro[3,4-c:4',3'-g]phenanthrene","Obenland and Schmidt, 1975"
 62662-49-1,Vertical value; , C,6.88 ¡À 0.02,PE,"Tetrabenzo[a,c,g,s]heptaphene","Schmidt, 1977"
 12542-39-1,, C,8.6 ¡À 0.5,EI,Vanadium dicarbide,"Kohl and Stearns, 1970"
 51750-59-5,, CGaN,9. ¡À 1.,EI,Gallium monocyanide,"Guido and Gigli, 1974"
 1664-98-8,LL, CD,10.9076 ¡À 0.0030,PE,(2H)formaldehyde,"Niu, Shirley, et al., 1993"
 51624-18-1,, CD,9.4 ¡À 0.1,PI,"Amidogen, methylene-d2","Nesbitt, Marston, et al., 1991"
 594-24-1,, CD,12.79,PE,Difluormethane-d2,"Brundle, Robin, et al., 1970"
 4120-02-9,LL, C,12,DER,"Methylidyne, cyano-","Lias, Bartmess, et al., 1988"
 56023-03-1,, C,10.58,PE,Cyanogen isothiocyanate,"King and Kroto, 1984"
 2180-01-0,, C,10.96 ¡À 0.02,PE,Selenium cyanide,"Jonkers, Mooyman, et al., 1981"
 22430-66-6,LLK, C,11.49 ¡À 0.02,PE,Cyanogen isocyanate,"Frost, Kroto, et al., 1977"
 12144-09-1,RDSH, C,8.2 ¡À 0.3,EI,Disiladicarbide,"Drowart, DeMaria, et al., 1958"
 627-52-1,Vertical value, C,11.32,PE,Sulfur dicyanide,"Rosmus, Stafast, et al., 1975"
 4331-98-0,, C,9.95,PE,"Cyanogen,di-N-oxide","Pasinszki and Westwood, 1995"
 505-14-6,LLK, C,10.5,PE,Thiocyanogen,"Frost, Kirby, et al., 1980"
 460-19-5,LBLHLM, C,13.5 ¡À 0.3,EI,Cyanogen,"Smith, 1983"
 83951-85-3,"Species erroneously identifed as bisisocyanide (CNNC) in this paper. Correct identification established in Stroh et al, Chem. Phys. Lett., 1989, 160, 105.", C,12.873,PE,Isocyanogen,"Grabandt, De Lange, et al., 1989"
 12071-27-1,LLK, C,10.1 ¡À 0.5,EI,Silicon dicarbide,"Stearns and Kohl, 1973"
 19401-01-5,, CAlN,7.4 ¡À 0.3,EI,Aluminum monocyanide,"Gingerich, 1967"
 7440-40-6,LL, Bk,6.23,EVAL,Berkelium,"Lide, 1992"
 3017-23-0,LLK, CDN,13.613 ¡À 0.002,PE,Hydrogen cyanide-d1,"Fridh and Asbrink, 1975"
 73142-81-1,LL, CD,9.268 ¡À 0.005,PI,Methylthio-d3 radical,"Ruscic and Berkowitz, 1992"
 7263-60-7,, CD,10.74 ¡À 0.02,PI,Methoxy-d3 radical,"Kuo, Zhang, et al., 1994"
 1111-89-3,, CD,11.3,PI,Chloromethane-d3,"Krauss, Walker, et al., 1968"
 558-21-4,, CD,12.67,PE,Fluoromethane-d3,"Brundle, Robin, et al., 1970"
 6853-31-2,LL, CD,7.53 ¡À 0.02,PI,Hydroxymethyl-d3 radical,"Kuo, Zhang, et al., 1994"
 2122-44-3,LLK, CD,9.5 ¡À 0.1,EI,Methyl-d3 radical,"Reeher, Flesch, et al., 1976"
 13031-32-8,LLK, CD,11.08 ¡À 0.01,PE,nitro(2H3)methane,"Rabalais, 1972"
 24286-05-3,LLK, CDO,8.56 ¡À 0.01,PE,"Methyl-d1 radical, oxo-","Dyke, Jonathan, et al., 1980"
 811-98-3,LLK, CD,11,PI,Methanol-D4,"Nishimura, Niwa, et al., 1980"
 558-20-3,LBLHLM, CD,12.658 ¡À 0.015,PI,(2H4)methane,"Berkowitz, Greene, et al., 1987"
 12385-37-4,RDSH, CIr,10. ¡À 1.,EI,iridium carbide,"McIntyre, Auwera-Mahieu, et al., 1968"
 12601-93-3,, CP,9.4 ¡À 0.5,EI,Carbon diphosphide,"Smoes, Myers, et al., 1971"
 12326-85-1,LLK, CP,10.5 ¡À 0.5,EI,Carbon monophosphide,"Smoes, Myers, et al., 1971"
 37342-74-8,, CPSi,8.9 ¡À 0.5,EI,Silicon monocarbide monophosphide,"Smoes, Depiere, et al., 1972"
 12071-15-7,LLK, C,5.4 ¡À 0.3,EI,lanthanum dicarbide,"Stearns and Kohl, 1971"
 12326-86-2,RDSH, CSi,8.2 ¡À 0.3,EI,Trisilicon carbide,"Drowart, DeMaria, et al., 1958"
 12012-32-7,LLK, C,6.2 ¡À 0.5,EI,cerium dicarbide,"Guido and Gigli, 1973"
 76-16-4,LLK, C,13.6,PE,"Ethane, hexafluoro-","Inghram, Hanson, et al., 1980"
 372-64-5,, C,10.68 ¡À 0.19,EI,"Disulfide, bis(trifluoromethyl)","Cullen, Frost, et al., 1970"
 372-63-4,, C,~10.5,PE,"Diazene, bis(trifluoromethyl)-","Brundle, Robin, et al., 1972"
 2154-71-4,Vertical value, C,10.7 ¡À 0.1,PE,Bis(trifluoromethyl)nitroxide,"Cornford, Frost, et al., 1972"
 372-07-6,, C,9.75 ¡À 0.03,PE,Bis(trifluoromethyl)tetrasulfane,"Cullen, Frost, et al., 1969"
 371-78-8,, C,11.28 ¡À 0.04,EI,"Methane, thiobis[trifluoro-","Cullen, Frost, et al., 1970"
 118436-71-8,, C,7.94,PE,"1,2,3,5-Dithiadiazolyl radical, 4-(trifluoromethyl)-","Boere, Oakley, et al., 1989"
 353-85-5,LBLHLM, C,14,PE,"Acetonitrile, trifluoro-","Molder, Pikver, et al., 1983"
 51353-53-8,Vertical value, C,10.2,PE,"Mercury, bis(trifluoromethylthiolato)-","Wittel, Bock, et al., 1975"
 372-06-5,, C,10.16 ¡À 0.03,PE,"Trisulfide, bis(trifluoromethyl)","Cullen, Frost, et al., 1969"
 2680-01-5,, C,10.518 ¡À 0.007,PE,Ethylene-d3,"Carlier and Botter, 1979"
 2210-34-6,, C,11.3 ¡À 0.1,EI,Acetylene-d1,"Reeher, Flesch, et al., 1976"
 1632-99-1,RDSH, C,11.73 ¡À 0.06,EI,Ethane-d6,"D'Or, Collin, et al., 1966"
 54393-42-9,, C,9.5,PE,"2,2,4,4-Tetrafluoro-1,3-diselenetane","Bock, Aygen, et al., 1984"
 354-65-4,Vertical value, C,10.11 ¡À 0.01,PE,"1,2-Diiodotetrafluoroethane","Chau and McDowell, 1976"
 371-73-3,Vertical value, C,10.12,PE,"Carbonfluoridodithioic acid, trifluoromethyl ester","Bock, Wittel, et al., 1974"
 116-14-3,LL, C,10.114 ¡À 0.010,PI,"Ethene, tetrafluoro-","Buckley, Johnson, et al., 1995"
 4789-21-3,, C,9.6130 ¡À 0.0003,PE,Ketene-d2,"Niu, Bai, et al., 1993"
 51353-51-6,Vertical value, C,10.83,PE,"Mercury, (cyanato-N)(trifluoromethyl)-","Wittel, Bock, et al., 1975"
 1070-74-2,LLK, C,11.2 ¡À 0.1,EI,Acetylene-d2,"Reeher, Flesch, et al., 1976"
 53262-56-9,, C,7.6 ¡À 0.8,EI,Cerium rhodium dicarbide,"Gingerich and Cocke, 1979"
 3369-48-0,RDSH, C,10. ¡À 0.1,EI,Pentafluoro ethyl radical,"Fisher, Homer, et al., 1965"
 354-64-3,LLK, C,10.7 ¡À 0.1,EI,Pentafluoroethyliodide,"Hsieh and Hanrahan, 1977"
 72344-34-4,, C,8.8,EI,"2-Phosphapropene, pentafluoro-","Binnewies, Grosse, et al., 1985"
 4605-17-8,LL, C,10.2,DER,Trifluorovinyl radical,"Lias, Bartmess, et al., 1988"
 359-62-6,LBLHLM, C,11.6,PE,Bis(trifluoromethyl)fluoroamine,"Burger, Pawelke, et al., 1982"
 689-99-6,LLK, C,11.18,PE,"Ethyne, difluoro-","Bieri, Schmelzer, et al., 1980"
 16388-46-8,, C,8.61,EI,"Iron, dicarbonyltris(phosphorus trifluoride)-","Muller, Fenderl, et al., 1971"
 359-40-0,LLK, C,12.20 ¡À 0.02,PE,oxalyl difluoride,"Frost, McDowell, et al., 1977"
 6552-57-4,, C,10.571,PE,Oxirane-d4,"Corderman, LeBreton, et al., 1976"
 683-73-8,LL, C,10.5286 ¡À 0.0006,LS,[2H4]ethylene,"Williams and Cool, 1991"
 83364-08-3,, C,10.29 ¡À 0.08,PI,Ethoxy-d5 radical,"Ruscic and Berkowitz, 1994"
 2206-26-0,RDSH, C,13.14,PE,[2H3]acetonitrile,"Lake and Thompson, 1970"
 917-96-4,, C,11.25,PE,Methyl isocyanide-d3,"Lake and Thompson, 1971"
 6745-35-3,, C,10.02 ¡À 0.02,PI,Vinylchloride-d3,"Momigny, 1963"
 61332-94-3,RDSH, C,9.3,EI,Cobalt dicarbonyl nitrosyl,"Pignataro and Lossing, 1968"
 12070-04-1,LLK, CSi,9.0 ¡À 0.5,EI,Disilicon carbide,"Stearns and Kohl, 1973"
 409-21-2,, CSi,9,EI,silicon carbide,"Verhaegen, Stafford, et al., 1964"
 12071-32-8,LLK, C,8.7 ¡À 0.5,EI,Titanium dicarbide,"Kohl and Stearns, 1974"
 12071-35-1,LLK, C,6.0 ¡À 1.0,EI,yttrium dicarbide,"Haque and Gingerich, 1979"
 12175-91-6,LLK, C,7.6 ¡À 1.0,EI,Scandium dicarbide,"Haque and Gingerich, 1981"
 12122-01-9,, C,8.0 ¡À 0.5,EI,Dialuminum dicarbide,"Stearns and Kohl, 1973"
 37297-57-7,, C,9.3 ¡À 1.0,EI,Monoaluminum dicarbide,"Stearns and Kohl, 1973"
 7572-29-4,LBLHLM, C,9.9,PE,"Ethyne, dichloro-","Maier and Thommen, 1984"
 23753-61-9,RDSH, C,9.67 ¡À 0.05,EI,"Pentaborane(9), 1-ethyl-","Murphy and Enrione, 1970"
 118436-69-4,, C,8.18,PE,"1,2,4,6-Thiatriazinyl radical, 3,5-dichloro-","Boere, Oakley, et al., 1989"
 471-29-4,, C,8.60 ¡À 0.05,EI,"Guanidine, methyl-","Loudon, Maccoll, et al., 1968"
 23753-62-0,RDSH, C,9.87 ¡À 0.01,EI,"Pentaborane(9), 2-ethyl-","Murphy and Enrione, 1970"
 13482-64-9,, C,10.46,PE,"Phosphinic chloride, bis(chloromethyl)-","Zverev, Vilesov, et al., 1975"
 4591-28-0,LLK, C,9,PE,dichloroketene,"Bock, Hirabayashi, et al., 1981"
 822-39-9,Vertical value, C,10.2,PE,"2-Chloro-1,3,2-dioxaphospholane","Zverev, Bazhanova, et al., 1986"
 1066-27-9,Vertical value; , C,10.73,PE,"Ethyne, 1-trimethylsilyl-","Ensslin, Bock, et al., 1974"
 420-12-2,LBLHLM, C,9.05,PIPECO,Thiirane,"Butler and Baer, 1983"
 287-53-6,LBLHLM, C,8.5,PE,"1,3-dithietane","Block, Corey, et al., 1982"
 56593-14-7, , C,11.3,PE,Dichlorobis(trifluoromethyl)germane,"Drake, Gorzelska, et al., 1982"
 76-14-2,Vertical value; , C,12.47,PE,"Ethane, 1,2-dichloro-1,1,2,2-tetrafluoro-","Chau and McDowell, 1976"
 20459-66-9,, C,9.16,PE,"Phosphinothioic chloride, bis(chloromethyl)-","Zverev, Vilesov, et al., 1975"
 289-16-7,Vertical value; , C,8.7 ¡À 0.2,PE,"1,2,4-Trithiolane","Guimon, Guimon, et al., 1976"
 22402-95-5,, C,9.38,PE,"Phosphinous chloride, bis(chloromethyl)-","Zverev, Vilesov, et al., 1975"
 13682-74-1,LLK, C,8.16 ¡À 0.04,PE,"Iron, dicarbonyldinitrosyl-","Hillier, Guest, et al., 1974"
 79-35-6,LLK, C,9.62,PE,"Ethene, 1,1-dichloro-2,2-difluoro-","Cullen, Frost, et al., 1972"
 598-88-9,LLK, C,10.2 ¡À 0.1,EI,"1,2-dichloro-1,2-difluoroethylene","Syrvatka, Gil'burd, et al., 1972"
 79-37-8,LLK, C,10.91 ¡À 0.05,PE,Oxalyl chloride,"Frost, McDowell, et al., 1977"
 6851-93-0,Vertical value; , C,9.3,PE,Thioacetaldehyde,"Rao, 1975"
 75-34-3,LLK, C,11.02,PE,"Ethane, 1,1-dichloro-","Berman, Anicich, et al., 1979"
 75-04-7,LBLHLM, C,8.9,PE,Ethylamine,"Ohno, Imai, et al., 1985"
 107-06-2,LLK, C,11.05,PI,"Ethane, 1,2-dichloro-","Berman, Anicich, et al., 1979"
 124-40-3,LLK, C,8.2 ¡À 0.1,PE,Dimethylamine,"Aue, Webb, et al., 1980"
 4885-02-3,LBLHLM, C,10.84,PE,"¦Á,¦Á-Dichloromethyl methyl ether","Molder, Pikver, et al., 1983"
 40613-93-2,, C,6.4 ¡À 0.2,EI,"2,2-Dimethylhydrazyl radical","Foner and Hudson, 1970"
 556-61-6,RDSH, C,9.13 ¡À 0.15,EI,"Methane, isothiocyanato-","Hobrock, Shenkel, et al., 1963"
 556-64-9,LLK, C,9.96 ¡À 0.05,PE,"Thiocyanic acid, methyl ester","Neijzen and DeLange, 1980"
 141-43-5,LBLHLM, C,8.9,PE,Monoethanolamine,"Ohno, Imai, et al., 1985"
 1117-97-1,LBLHLM, C,8.92,PE,"Methanamine, N-methoxy-","Molder, Pikver, et al., 1983"
 1520-31-6,Vertical value, C,9.5,PE,"Sulfoximine, s,s-dimethyl-","Solouki, Bock, et al., 1975"
 157-16-4, , C,10.1,PE,2H-Azirine,"Bock and Dammel, 1987"
 593-75-9,LBLHLM, C,11.53 ¡À 0.04,EI,Methyl isocyanide,"Harland and McIntosh, 1985"
 75-05-8,LL, C,12.201 ¡À 0.002,PE,Acetonitrile,"Gochel-Dupuis, Delwiche, et al., 1992"
 3638-64-0,LL, C,11,EST,Nitroethylene,"Takhistov and Ponomarev, 1994"
 930-33-6,Vertical value, C,9.18,PE,"3H-1,2,4-Triazol-3-one, 1,2-dihydro-","Guimon, Pfister-Guillouzo, et al., 1975"
 430-67-1,LLK, C,9.4,PE,"Ethylamine, 2,2-difluoro-","Aue and Bowers, 1979"
 54680-52-3,, C,8.55,EST,Nitrosoethylene,"Takhistov and Ponomarev, 1994"
 624-83-9,LLK, C,10.67 ¡À 0.02,PE,"Methane, isocyanato-","Cradock, Ebsworth, et al., 1972"
 4426-70-4,Vertical value, C,8.9,PE,Methyl isoselenocyanate,"Pasinszki, Veszpremi, et al., 1992"
 1768-34-9,, C,11.3,PE,Methylcyanate,"Pasinszki and Westwood, 1995"
 2179-80-8,Vertical value, C,9.6,PE,Methyl selenocyanate,"Pasinszki, Veszpremi, et al., 1992"
 288-36-8,LLK, C,10.1,PE,"1H-1,2,3-Triazole","Palmer, Simpson, et al., 1981"
 62-55-5,LLK, C,8.36,PE,Ethanethioamide,"Mines and Thompson, 1975"
 151-56-4,LLK, C,9.2 ¡À 0.1,PE,Ethylenimine,"Aue, Webb, et al., 1980"
 1761-67-7,LBLHLM, C,9.3,PE,N-Methyl methanimine,"Bock and Dammel, 1987"
 20729-41-3,LBLHLM, C,9.5,PE,Acetaldimine,"Bock and Dammel, 1987"
 593-67-9,LL, C,8.1,EST,vinylamine,"Takhistov and Ponomarev, 1994"
 288-88-0,LLK, C,9.8,PE,"1H-1,2,4-Triazole","Palmer, Simpson, et al., 1981"
 353-36-6,LBLHLM, C,11.78,EI,"Ethane, fluoro-","Blanchette, Holmes, et al., 1987"
 925-91-7,LLK, C,10.1 ¡À 0.2,EI,Nitrosoethane,"Tan and Lampe, 1972"
 60-35-5,LLK, C,9.7,PE,Acetamide,"Asbrink, Svensson, et al., 1981"
 107-29-9,LLK, C,10,PE,Acetaldoxime,"Dargelos and Sandorfy, 1977"
 625-58-1,RDSH, C,11.22,PI,"Nitric acid, ethyl ester","Watanabe, Nakayama, et al., 1962"
 371-62-0,LBLHLM, C,10.66,PE,"Ethanol, 2-fluoro-","Koppel, Molder, et al., 1983"
 123-39-7,LLK, C,9.86,PE,"Formamide, N-methyl-","Kimura, Katsumata, et al., 1981"
 79-24-3,RDSH, C,10.92 ¡À 0.01,PE,"Ethane, nitro-","Dewar, Shanshal, et al., 1969"
 109-95-5,RDSH, C,10.53 ¡À 0.01,PE,Ethyl-nitrite-,"Dewar, Shanshal, et al., 1969"
 56-40-6,LBLHLM, C,8.9,PE,Glycine,"Cannington and Ham, 1983"
 31533-72-9,LL, C,6.85 ¡À 0.03,PE,Methylthiomethyl radical,"Baker and Dyke, 1993"
 14836-22-7,LL, C,9.6 ¡À 0.8,CIEL,CH3CH2S,"Griffiths, Harris, et al., 1989"
 26395-29-9,, C,9.4 ¡À 0.1,EI,1-Bromo-2-iodoacetylene,"Kloster-Jensen, Pascual, et al., 1970"
 75-03-6,LL, C,9.3492 ¡À 0.0006,TE,"Ethane, iodo-","Knoblauch, Strobel, et al., 1995"