CAS,Comment,Formula,IE,Method,Name,Refer
 12282-38-1, , C,6.96,PE,"Rhodium, (2,4-pentanedionato-o,o'-)-bis¦Ç","Van Dam, Terpstra, et al., 1980"
 66930-02-7,Vertical value, C,8.80 ¡À 0.05,PE,"Tricyclo[3.2.1.02,4]octane, 3,3-dimethyl-8-methylene-, (1¦Á,2¦Á,4¦Á,5¦Á)-","Martin, Heller, et al., 1977"
 71794-57-5, , C,6.8,PE,"Ferrocene, 1,1'-[methylenebis(thio)]-","Vondrak and Sato, 1989"
 608-07-1,Vertical value; , C,7.68 ¡À 0.12,PE,5-Methoxytryptamine,"Domelsmith, Munchausen, et al., 1977"
 49616-12-8, , C,6.7,PE,"2-Azapentalene, 1-dimethylamino-3-ethoxy-","Eckert-Maksic, Gleiter, et al., 1988"
 60038-41-7,Vertical value, C,9.22,PE,Tricyclo[3.3.1.1,"Egdell, Green, et al., 1975"
 71609-39-7,Vertical value, C,8.6,PE,"1H-Imidazole,4,5-dihydro-2-[(4-methoxyphenyl)methyl]-","De Jong and van Dam, 1979"
 61-49-4,Vertical value, C,7.60 ¡À 0.08,PE,"1H-Indole-3-ethanamine, N-methyl-","Domelsmith, Munchausen, et al., 1977"
 1821-47-2,LLK, C,7.6,PE,5-Methyltryptamine,"Domelsmith, Munchausen, et al., 1977"
 87-52-5,Vertical value, C,7.69 ¡À 0.16,PE,Gramine,"Domelsmith, Munchausen, et al., 1977"
 3038-50-4,Vertical value, C,8.6,PE,"2-Imidazoline, 2-(o-methylbenzyl)-","De Jong and van Dam, 1979"
 2216-69-5,LBLHLM, C,7.7,PE,"Naphthalene, 1-methoxy-","Klasinc, Kovac, et al., 1983"
 106710-59-2, , C,8.3,PE,"Bicyclo[2.2.1]heptan-7-one, 2,3,5,6-tetramethylene-","Carrupt, Gabioud, et al., 1987"
 20651-88-1,LLK, C,8.5,PE,"1,2-Indandione, 3,3-dimethyl-","Arnett, Newkome, et al., 1974"
 93-04-9,LBLHLM, C,7.44,PE,"Naphthalene, 2-methoxy-","Klasinc, Kovac, et al., 1983"
 2958-72-7,Vertical value, C,9.1,PE,"Pentacyclo[5.4.0.0(2,6).0(3,10).0(5,9)]undecane-8,11-dione","Marchand, Kaya, et al., 1984"
 23026-73-5,Vertical value; , C,8.4,PE,"6H-Cyclohepta[c]thiophen-6-one, 5,7-dimethyl-","Gleiter, Bischof, et al., 1984"
 127099-72-3,Vertical value, C,6.84,PE,"Pyrrolidine, 1-[(phenylphosphinidene)methyl]-","Zverev and Ionkin, 1991"
 1076-67-1,, C,8.04,PE,1-Naphthalenemethanethiol,"Glass, Broeker, et al., 1989"
 10075-72-6,Vertical value, C,7.67,PE,"Naphthalene,1-(methylthio)-","Bock and Wagner, 1972"
 7433-79-6,Vertical value, C,7.71,PE,2-Methylmercaptonaphthalene,"Bock, Wagner, et al., 1972"
 828-51-3,LLK, C,9.34,PE,Adamantane-1-carboxylic acid,"Worley, Mateescu, et al., 1973"
 62635-51-2,, C,8.50 ¡À 0.05,EI,"Butanamide,N-(2-chlorophenyl)-3-methyl-","Baldwin, Loudon, et al., 1976"
 15360-00-6,Vertical value, C,8.00 ¡À 0.015,PE,"Benzene, 1-(1,1-dimethylethoxy)-4-methoxy-","Klessinger, Asmus, et al., 1975"
 57239-03-9,LLK, C,8.86,PE,"Bicyclo[2.2.1]heptane-2,5-dione, 3,3,6,6-tetramethyl-","Frost, Westwood, et al., 1980"
 54929-09-8,Vertical value, C,7.79 ¡À 0.015,PE,"Benzene,1-methoxy-4-(2-methylpropoxy)-","Klessinger, Asmus, et al., 1975"
 139914-54-8,Vertical value, C,9.22,PE,"4,8-Dimethylbicyclo[3.3.1]nonane-2,6-dione","Doerner, Gleiter, et al., 1992"
 10309-20-3,Vertical value; , C,9.05,PE,"2-Methylene-3,3-dimethylbicyclo[2.2.1]heptane-1-carboxylic acid","Nesmeyanov, Baiden, et al., 1981"
 20636-14-0,, C,8.45 ¡À 0.05,EI,"Benzene,(4-methoxybutoxy)-","Schwarz, Petersen, et al., 1977"
 20743-95-7,Vertical value, C,7.74 ¡À 0.015,PE,"Benzene, 1-butoxy-4-methoxy-","Klessinger, Asmus, et al., 1975"
 3278-94-2,Vertical value, C,8.73,PE,"Bicyclo[3.2.1]octane-2,4-dione,1,8,8-trimethyl-","Gleiter, Hofmann, et al., 1980"
 51241-49-7,Vertical value, C,7.83 ¡À 0.015,PE,"Benzene,1-methoxy-4-(1-methylpropoxy)-","Klessinger, Asmus, et al., 1975"
 2443-46-1,LBLHLM, C,7.7,PE,"Bicyclo[4.4.1]undeca-1,3,5,7,9-pentaene","Andrea, Cerfontain, et al., 1984"
 75503-13-8,LLK, C,8.25,PE,"Bicyclo[2.2.1]heptan-2-one,3,3,6,6-tetramethyl-5-thioxo-","Frost, Westwood, et al., 1980"
 49833-45-6,Vertical value; , C,8.33,PE,t-Butyl p-methylphenyl sulfoxide,"Mohraz, Jian-qi, et al., 1981"
 5396-38-3,LBLHLM, C,7.77 ¡À 0.02,EI,"Benzene, 1-(1,1-dimethylethyl)-4-methoxy-","Orlov, Misharev, et al., 1986"
 77919-66-5,Vertical value; , C,8.5,PE,Isobutyl-p-methylphenyl sulfoxide,"Mohraz, Jian-qi, et al., 1981"
 18272-84-9,, C,8.2 ¡À 0.1,EI,"Benzene, 1-butyl-4-methoxy-","Lightner, Majeti, et al., 1972"
 20893-43-0,, C,8.2 ¡À 0.1,EI,"Benzene,1-butyl-3-methoxy-","Lightner, Majeti, et al., 1972"
 88288-20-4,Vertical value, C,8.9,PE,[3.3.3]Propellane-2-one,"Gleiter, Litterst, et al., 1988"
 70220-95-0, , C,8.4,PE,"Tricyclo[4.3.1.1(2,5)]undec-3-en-10-ol, stereoisomer","Tombo, Ammann, et al., 1983"
 15359-98-5,Vertical value, C,8.23,PE,"Benzene, 1-(1,1-dimethylethoxy)-4-methyl-","Dewar, Ernstbrunner, et al., 1974"
 15359-96-3,Vertical value, C,8.45,PE,"Benzene, 1-(1,1-dimethylethoxy)-2-methyl-","Friege and Klessinger, 1979"
 826-56-2,, C,9.6 ¡À 0.2,EI,"2(3H)-Naphthalenone,4,4a,5,6,7,8-hexahydro-4a-methyl-","Fortin, Forest, et al., 1973"
 54350-31-1,Vertical value; , C,8.49,PE,"Benzene, 1,3-dimethyl-2-(1-methylethoxy)-","Dewar, Ernstbrunner, et al., 1974"
 61248-63-3,Vertical value; , C,8.28,PE,"Benzene, 2-ethoxy-1,3,5-trimethyl-","Friege and Klessinger, 1979"
 875-72-9,Vertical value, C,8.86 ¡À 0.02,PE,Tricyclo[3.3.1.1,"Worrell, Verhoeven, et al., 1974"
 1923-01-9,LLK, C,8.23 ¡À 0.04,EI,"Silane,trimethyl(1-phenylethenyl)-","Benito, Seidl, et al., 1973"
 19319-11-0,, C,8.19 ¡À 0.04,EI,"Silane,trimethyl(2-phenylethenyl)-,(Z)-","Benito, Seidl, et al., 1973"
 55632-03-6,, C,7.5,PE,"1,3,5,7-Cyclooctatetraenyl trimethylsilane","Bruno, Ciliberto, et al., 1982"
 102606-35-9, , C,9.4,PE,"2,3-Dicyanobicyclo[2.2.3]nona-2,5-diene","Kobayashi, Yoshida, et al., 1987"
 15445-66-6,Vertical value, C,8.46,PE,"Piperidine, 1-pentafluorophenyl-","Furin, Sultanov, et al., 1987"
 90777-42-7, , C,8.6,PE,"Bicyclo[2.2.1]hepta-2,5-diene-2,3-dicarbonitrile, 5,6-dimethyl-","Kobayashi, Yoshida, et al., 1987"
 19372-00-0,, C,7.89 ¡À 0.04,EI,"Silane,trimethyl(2-phenylethenyl)-,(E)-","Benito, Seidl, et al., 1973"
 76266-17-6,Vertical value, C,8.58,PE,"Cyclopropa[b]naphthalene, 1,1-difluoro-","Lecoultre, Heilbronner, et al., 1988"
 12129-28-1,, C,7.35 ¡À 0.04,CTS,"1,3-Dimethylbenzenechromium tricarbonyl","Huttner and Fischer, 1967"
 12129-29-2,LLK, C,7.29,CTS,o-Dimethylbenzene chromium tricarbonyl,"Kobayashi, Kobayashi, et al., 1973"
 12129-27-0,, C,7.35 ¡À 0.04,CTS,"Chromium, tricarbonyl[(1,2,3,4,5,6-¦Ç)-1,4-dimethylbenzene]-","Huttner and Fischer, 1967"
 31871-24-6,, C,7.03,EI,Endo-7-methoxycycloheptatrienechromium tricarbonyl,"Muller and Fenderl, 1970"
 31760-96-0,, C,7.16,EI,Exo-7-methoxycycloheptatrienechromium tricarbonyl,"Muller and Fenderl, 1970"
 12701-85-8,Vertical value, C,5.9 ¡À 0.1,PE,"Molybdenum,carbonylbis(¦Ç","Green, Jackson, et al., 1975"
 90-12-0,LL, C,7.90 ¡À 0.02,PI,"Naphthalene, 1-methyl-","Gotkis and Lifshitz, 1993"
 63270-53-1,Vertical value, C,8.2,PE,"2-Acetyl-3,4-dimethylphosphole manganese tricarbonyl","Guimon, Pfister-Guillouzo, et al., 1979"
 91-57-6,LL, C,7.91 ¡À 0.02,TRPI,"Naphthalene, 2-methyl-","Gotkis and Lifshitz, 1993"
 1654-52-0,Vertical value; , C,7.34 ¡À 0.03,PE,"Azulene,6-methyl-","Heilbronner, Hoshi, et al., 1976"
 65915-89-1,Vertical value, C,8.75,PE,"1,2-Methanodicyclopropa[cd,gh]pentalene,3-ethenylideneoctahydro-","Bischof, Bohm, et al., 1978"
 769-31-3,Vertical value; , C,7.26 ¡À 0.03,PE,1-Methylazulene,"Heilbronner, Hoshi, et al., 1976"
 17647-77-7,Vertical value; , C,7.33 ¡À 0.03,PE,4-Methylazulene,"Heilbronner, Hoshi, et al., 1976"
 74410-87-0, , C,8,PE,"4,5-Benzotricyclo[4.1.0.0","Gleiter, Krennrich, et al., 1986"
 4453-90-1,Vertical value; , C,8.34,PE,"1,4-Methanonaphthalene, 1,4-dihydro-","Ku, Paquette, et al., 1979"
 1654-55-3,Vertical value; , C,7.30 ¡À 0.03,PE,"Azulene,5-methyl-","Heilbronner, Hoshi, et al., 1976"
 87965-49-9, , C,7.1,PE,"Iron, ¦Ç","Guimon, Pfister-Guillouzo, et al., 1985"
 94890-85-4, , C,7.1,PE,"Iron, ¦Ç","Guimon, Pfister-Guillouzo, et al., 1985"
 1271-44-9,, C,6.76,CTS,Methyl ferrocene,"Huttner and Fischer, 1967"
 3430-09-9,, C,9.4 ¡À 0.1,EI,"Methanone,phenylpyrazinyl-","Grutzmacher and Schubert, 1979"
 60-80-0, , C,7.4,PE,Antipyrine,"Vondrak, Bastl, et al., 1988"
 54-12-6,RDSH, C,8.43,CTS,Tryptophan,"Slifkin and Allison, 1967"
 130720-67-1, , C,9.7,PE,"Spirocyclohexane-2-(1,5,6-triazabicyclo[3.1.0]hexane), 4,4,6-tris(trifluoromethyl)-","Kaupp and Dohle, 1988"
 68027-80-5,, C,9.4 ¡À 0.1,EI,"Methanone,phenyl-4-pyrimidinyl-","Grutzmacher and Schubert, 1979"
 204-02-4,, C,6.8,CTS,Perimidine,"Pozharskii, Kashparov, et al., 1971"
 244-63-3,Vertical value, C,7.99 ¡À 0.06,PE,"9H-Pyrido[3,4-b]indole","Domelsmith and Houk, 1978"
 10542-87-7,LLK, C,8.2,EI,"3-Buten-2-one, 4-(2-methoxyphenyl)-","Grutzmacher, Schaldach, et al., 1980"
 60526-44-5,LLK, C,8.1,PE,"Spiro[bicyclo[2.2.1]hept-5-ene-7,1'-cyclopentane]-2,3-dione-","Dougherty, Blankespoor, et al., 1979"
 31517-61-0,Vertical value, C,9.18,PE,"4,8-Dimethylbicyclo[3.3.1]nona-3,7-diene-2,6-dione","Doerner, Gleiter, et al., 1992"
 31616-72-5,Vertical value, C,8.94,PE,"4,6-Dimethylbicyclo[3.3.1]nona-3,6-diene-2,8-dione","Doerner, Gleiter, et al., 1992"
 12264-26-5,Vertical value, C,7.84,PE,"Iron, tetracarbonyl(2,4-dimethyl-2,3-pentadiene)-","Hill, Ward, et al., 1979"
 33270-50-7,Vertical value, C,7.45,PE,"Iron, tricarbonyl[(1,2,3,4-¦Ç","Green, Powell, et al., 1976"
 53110-58-0,Vertical value, C,8.19,PE,"Iron,tricarbonyl[(1,2,3,4-¦Ç)-(2,4-hexadienoic acid ethyl ester,(E,E)-","Worley, Webb, et al., 1980"
 64940-50-7, , C,9.1,PE,"[3.3.3]Propellane-2,8,9-trione","Gleiter, Litterst, et al., 1988"
 34741-93-0,Vertical value, C,7.37,PE,"Chromium,pentacarbonyl(2-furanylmethoxymethylene)-(oc-6-21)-","Block and Fenske, 1977"
 16927-82-5,LLK, C,8.5 ¡À 0.05,EI,4-(2-Methylphenyl)-but-3-en-2-one,"Schaldach, Grotemeyer, et al., 1981"
 2513-25-9,LLK, C,7.8 ¡À 0.1,EI,"2H-1-Benzopyran, 2,2-dimethyl-","Schaldach and Grutzmacher, 1979"
 15753-84-1,LLK, C,8.6 ¡À 0.05,EI,(E)-4-(3-Methylphenyl)-but-3-en-2-one,"Schaldach, Grotemeyer, et al., 1981"
 1198-20-5,Vertical value, C,8.62 ¡À 0.02,PE,"1,4-Methanonaphthalen-9-ol, 1,2,3,4-tetrahydro-, stereoisomer","Brown and Marcinko, 1977"
 69461-92-3,Vertical value, C,8.8,PE,Pentacyclo[5.4.0.0,"Marchand, Kaya, et al., 1984"
 4023-84-1,LLK, C,8.5 ¡À 0.05,EI,(E)-4-(4-Methylphenyl)-but-3-en-2-one,"Schaldach, Grotemeyer, et al., 1981"
 127973-62-0,Vertical value, C,7.67,PE,"Iron,1,3-butadiynyl-dicarbonyl(¦Ç","Lichtenberger and Renshaw, 1993"
 69440-00-2,LBLHLM, C,7.44,PE,¦Ì,"DeKock, Wong, et al., 1982"
 4250-81-1,Vertical value; , C,8.29 ¡À 0.02,PE,1-Phenyl-1-pentyne,"Carlier and Mouvier, 1979"
 69593-18-6,Vertical value, C,8,PE,"3,4-Dimethyl-2-ethylphosphole manganese tricarbonyl","Guimon, Pfister-Guillouzo, et al., 1979"
 65248-67-1,Vertical value, C,8.21,PE,"1H-Imidazole,2-[(2,6-dichlorophenyl)methyl]-4,5-dihydro-1-methyl-","De Jong and van Dam, 1979"
 98-73-7,LL, C,8.94,PI,"Benzoic acid, p-tert-butyl-","Takhistov, Misharev, et al., 1995"
 2046-17-5,, C,8.6 ¡À 0.3,EI,"Benzenebutanoic acid, methyl ester","Howe and Williams, 1968"
 3461-39-0,, C,8.7 ¡À 0.2,EI,"Benzenepropanoic acid, ¦Â-methyl-, methyl ester","Howe, Williams, et al., 1969"
 57625-74-8,, C,8.77,PI,"Benzeneacetic acid, ¦Á,¦Á-dimethyl-, methyl ester","Domnin, Lakshin, et al., 1985"
 4160-51-4,, C,8.3 ¡À 0.2,EI,4'-Methoxybutyrophenone,"McLafferty and Wachs, 1967"
 54929-10-1,Vertical value, C,7.78 ¡À 0.015,PE,"Benzene,1-(cyclopropylmethoxy)-4-methoxy-","Klessinger, Asmus, et al., 1975"
 112138-34-8,Vertical value, C,9.1,PE,"[3.3.3]Propellane-2,8-dione","Gleiter, Litterst, et al., 1988"
 22320-10-1,, C,8.5 ¡À 0.2,EI,"Benzenebutanoic acid, 4-hydroxy-, methyl ester","Howe, Williams, et al., 1969"
 1009-14-9,Vertical value; , C,9.3,PE,"1-Pentanone, 1-phenyl-","Koenig, Wielesek, et al., 1977"
 938-16-9,LLK, C,8.7,PE,Phenyl tert-butyl ketone,"Brown, 1975"
 1667-01-2,LLK, C,8.2,PE,"Ethanone, 1-(2,4,6-trimethylphenyl)-","Centineo, Fragala, et al., 1978"
 2235-83-8,, C,9.0 ¡À 0.1,EI,"2-Pentanone, 5-phenyl-","Occolowitz, 1967"
 10487-96-4,, C,8,EI,1-Phenylcyclopentanol-1,"Mikaya, Zaikin, et al., 1979"
 63340-01-2,Vertical value, C,8.09,PE,"Benzene,1-methoxy-4-(1-methylcyclopropyl)-","Prins, Verhoeven, et al., 1977"
 58287-34-6,Vertical value, C,8.44,PE,"2-Cyclopropen-1-one,2,3-bis(1-methylcyclopropyl)-","Dehmlow, Dehmlow, et al., 1977"
 4160-52-5,, C,8.8 ¡À 0.2,EI,4'-Methylbutyrophenone,"McLafferty and Wachs, 1967"
 204-14-8, , C,7.3,PE,"Naphtho[1,8-de]-1,3-dithiin","Bock, Brahler, et al., 1981"
 286-85-1,LLK, C,8.03,PE,1H-Cyclopropa[b]naphthalene,"Schulz, Schweig, et al., 1980"
 12146-37-1,LLK, C,7,PE,"Molybdenum, tetracarbonyl(2,5-norbornadiene)-","Worley and Webb, 1980"
 85289-24-3, , C,8.33,PE,"1,3,2-Oxaazaphosphorinane, 5,5-dimethyl-2-phenoxy-, 2-oxide","Edmundson, 1983"
 12093-05-9,LL, C,7.80 ¡À 0.10,EI,"Iron, tricarbonyl[(1,2,3,4-¦Ç","Opitz, Bruch, et al., 1994"
 12146-36-0,Vertical value, C,7.28,PE,"Chromium,[(2,3,5,6-¦Ç)-bicyclo[2.2.1]hepta-2,5-diene]tetracarbonyl-","Worley and Webb, 1980"
 52140-27-9,, C,7.8,EI,"Chromium, (carbonothioyl)dicarbonyl[(1,2,3,4,5,6-¦Ç","Simonneaux, Jaouen, et al., 1977"
 12125-87-0,LLK, C,7.1,EI,(¦Ç,"Simonneaux, Jaouen, et al., 1977"
 12153-11-6,, C,7.44,EI,Acetophenonechromium tricarbonyl,"Muller, 1969"
 14327-04-9,, C,7.85 ¡À 0.05,EI,"Thiourea, N-(1,1-dimethylethyl)-N'-phenyl-","Baldwin, Loudon, et al., 1976"
 85289-25-4, , C,8.22,PE,"1,3,2-Oxaazaphosphorinane, 2-sulfide, 2-phenoxy-5,5-dimethyl-","Edmundson, 1983"
 77671-19-3,Vertical value, C,8.88,PE,"1-Benzyl-2,3,3-trimethyldiaziridine","Klasinc, Mannschreck, et al., 1994"
 19560-66-8,Vertical value, C,7.27,PE,"1H-1,5-Benzodiazepine, 2,3,4,5-tetrahydro-1,5-dimethyl-","Nelsen, Grezzo, et al., 1981"
 12282-26-7, , C,6.9,PE,"Ruthenium, 1,2,3,4-¦Ç","Worley, Webb, et al., 1982"
 4923-61-9, , C,8.4,PE,"1,4-Naphthalenedione, 5-methoxy-","Millefiori, Gulino, et al., 1990"
 21566-11-0,Vertical value, C,7.4,PE,"Benzamide, 4-(dimethylamino)-N,N-dimethyl-","Gal, Geribaldi, et al., 1985"
 15054-54-3,, C,8.10 ¡À 0.05,EI,"Urea,N-(1,1-dimethylethyl)-N'-phenyl-","Baldwin, Loudon, et al., 1976"
 2348-82-5, , C,9,PE,"1,4-Naphthalenedione, 2-methoxy-","Millefiori, Gulino, et al., 1990"
 31884-35-2,, C,7.8 ¡À 0.1,EI,"Chromium, tricarbonyl(¦Ç","Cardin, Keppie, et al., 1971"
 4486-29-7,Vertical value; , C,8.45 ¡À 0.05,PE,"1,4-Methanonaphthalene, 1,2,3,4-tetrahydro-","Domelsmith, Mollere, et al., 1978"
 15825-93-1,LBLHLM, C,7.85,PE,"2,7-Dibromo-1,6-methano[10]annulene","Andrea, Cerfontain, et al., 1984"
 4443-91-8,LLK, C,8.3,PE,7-H-Benzocyclophepten-7-one,"Allan, Heilbronner, et al., 1975"
 66-77-3,LBLHLM, C,8.33,PE,1-Naphthalenecarboxaldehyde,"Klasinc, Kovac, et al., 1983"
 36628-80-5,LBLHLM, C,8,PE,"1,6-methano[10]annulen-11-one","Andrea, Cerfontain, et al., 1984"
 19026-91-6,LBLHLM, C,8.19 ¡À 0.03,PE,"11,11-Difluoro-1,6-methano[10]annulene","Andrea, Cerfontain, et al., 1984"
 135-00-2,, C,9.2 ¡À 0.1,EI,"Methanone, phenyl-2-thienyl-","Grutzmacher and Schubert, 1979"
 93-09-4, , C,8.26,PE,2-Naphthalenecarboxylic acid,"Klasinc, Kovac, et al., 1983"
 58-27-5,LLK, C,9.3,PE,Menadione,"Redchenko, Freimanis, et al., 1980"
 86-55-5, , C,8.29,PE,1-Naphthalenecarboxylic acid,"Klasinc, Kovac, et al., 1983"
 2689-59-0,, C,9.1 ¡À 0.1,EI,"Methanone, 2-furanylphenyl-","Grutzmacher and Schubert, 1979"
 269-43-2, , C,7.8,PE,"Naphtho[2,3-d]-1,3-dioxole","Gleiter and Uschmann, 1986"
 74010-34-7,Vertical value, C,8.04,PE,"1H-Indene, 2-ethynyl-","Schulz, Schweig, et al., 1980"
 75067-09-3,, C,6.98,PE,"2H-Indene, 2-ethenylidene-","Schulz, Schweig, et al., 1980"
 825-54-7,Vertical value, C,8.15,PE,"Benzene, 1-cyclopenten-1-yl-","Bruckmann and Klessinger, 1974"
 769-26-6,LLK, C,8.16 ¡À 0.08,PE,"2,4,6-Trimethylphenylacetylene","Elbel, Lienert, et al., 1981"
 65915-88-0,Vertical value, C,9.05,PE,"Spiro[cyclopropane-1,3'-[1,2]methanodicyclopropa[cd,gh]pentalene]octahydro-","Bischof, Bohm, et al., 1978"
 37689-22-8,Vertical value, C,~9.2 ¡À 0.05,PE,"Benzene,2-cyclopenten-1-yl-","McAlduff, Caramella, et al., 1978"
 65071-71-8,Vertical value, C,8.7,PE,Pentacyclo[4.3.0.0,"Spanget-Larsen, Gleiter, et al., 1980"
 36439-89-1,Vertical value, C,8.37 ¡À 0.03,PE,Tricyclo[3.2.2.0,"Pfeffer, Klessinger, et al., 1975"
 23063-31-2,Vertical value; , C,8.17,PE,"Cyclopropene,1,2-dimethyl-3-phenyl-","Baidin, Domnin, et al., 1984"
 60582-11-8,LLK, C,8.19,PE,"1H-Cyclobut[e]indene,2,5,6,7-tetrahydro-","Santiago, Gandour, et al., 1978"
 60582-10-7,LLK, C,8.05,PE,"1H-Cyclobut[f]indene,2,4,5,6-tetrahydro-","Santiago, Gandour, et al., 1978"
 39599-89-8,, C,8.62 ¡À 0.01,PE,"Benzene, 3-cyclopenten-1-yl-","Rang, Paldoia, et al., 1974"
 1612-03-9,LLK, C,8.35 ¡À 0.08,PE,1-Phenyl-3-methyl-1-butyne,"Elbel, Lienert, et al., 1981"
 67313-66-0,, C,7.7,PE,"Tricyclo[5.3.1.0]undeca-2,4,9-triene","Scott, Erden, et al., 1982"
 25108-63-8,Vertical value, C,7.90 ¡À 0.02,PE,"Naphthalene,1,2,3,4-tetrahydro-1-methylene-","Maier and Turner, 1973"
 73321-24-1,, C,7.9,PE,Tricyclo[5.2.2.0,"Bohm, Carr, et al., 1980"
 4912-92-9,RDSH, C,8.47,CTS,"1H-Indene, 2,3-dihydro-1,1-dimethyl-","Pitt, 1970"
 2170-06-1,LLK, C,8.3,PE,"Silane, trimethyl(phenylethynyl)-","Elbel, Lienert, et al., 1981"
 700-88-9, , C,7.9,EI,"Benzene, cyclopentyl-","Mikaya, Zaikin, et al., 1979"
 75503-14-9,LLK, C,8.2,PE,"Bicyclo[2.2.1]heptane-2,5-dithione, 3,3,6,6-tetramethyl-","Frost, Westwood, et al., 1980"
 7439-10-3,Vertical value; , C,8.31,PE,"Benzene, 1-[(1,1-dimethylethyl)thio]-4-methyl-","Dewar, Ernstbrunner, et al., 1974"
 7252-86-0,Vertical value; , C,7.83 ¡À 0.05,PE,"Benzene,1-(1,1-dimethylethyl)-4-(methylthio)-","Colonna, Danieli, et al., 1976"
 34786-26-0,Vertical value; , C,8.35,PE,tert-Butyl m-Tolyl sulfide,"Dewar, Ernstbrunner, et al., 1974"
 54576-42-0, , C,8,PE,"Benzene, [2-[(1-methylethyl)thio]ethyl]-","Glass, Broeker, et al., 1989"
 769-25-5,Vertical value, C,8.33,PE,"Benzene, 2-ethenyl-1,3,5-trimethyl-","Kobayashi, Yokota, et al., 1973"
 826-18-6,, C,8.4 ¡À 0.07,EI,"Benzene, 1-pentenyl-","Schwarz, Wesdemiotis, et al., 1975"
 1075-16-7,RDSH, C,9.10 ¡À 0.05,EI,"5H-Benzocycloheptene,6,7,8,9-tetrahydro-","Meier, Heiss, et al., 1968"
 53666-30-1,, C,6.4 ¡À 0.1,EI,"Methanimidamide,N'-[2-chloro-4-(dimethylamino)phenyl]-N,N-dimethyl-","Kuschel and Grutzmacher, 1974"
 53666-39-0,, C,6.4 ¡À 0.1,EI,"Methanimidamide,N'-[2-chloro-5-(dimethylamino)phenyl]-N,N-dimethyl-","Kuschel and Grutzmacher, 1974"
 7306-05-0,, C,8.1,EI,1-Methyl-1-phenylcyclobutane,"Mikaya, Zaikin, et al., 1979"
 20836-11-7,RDSH, C,8.47,CTS,"2,2-Dimethylindene, 2,3-dihydro-","Pitt, 1970"
 36439-90-4,Vertical value, C,8.38 ¡À 0.03,PE,"Tricyclo[3.2.2.0<sup>2,4</sup>]nonane,6,7-bis(methylene)-(1&#945;,2&#946;,4&#946;,5&#945;)-","Pfeffer, Klessinger, et al., 1975"
 49542-94-1,Vertical value; , C,7.87,PE,"Spiro[2.4]hepta-1,4,6-triene, 1,2-diethyl-","Bischof, Gleiter, et al., 1976"
 58738-49-1,LBLHLM, C,8.25,PE,"Dispiro[2.0.2.5]undeca-1,5-diene","Spanget-Larsen, de Korswagen, et al., 1982"
 73586-31-9, , C,7.5,PE,"2,4-Methano-2,4-didehydroadamantane","Eckert-Maksic, Mlinaric-Majerski, et al., 1987"
 70469-89-5, , C,8.6,PE,"Pentacyclo[3.3.3.0<sup>2,4</sup>.0<sup>6,8</sup>.0<sup>9.11</sup>]undecane, stereoisomer","Gleiter, Bohm, et al., 1983"
 33701-58-5,, C,7.9,PE,Tricyclo[3.2.1.0,"Heilbronner and Martin, 1972"
 50462-84-5,Vertical value, C,8.7,PE,"Benzene,(1-ethylcyclopropyl)-","Prins, Verhoeven, et al., 1977"
 89922-46-3, , C,6.8,PE,"Manganese, (1,2,3-¦Ç","Green, Paz-Sandoval, et al., 1985"
 98-51-1, , C,8.28 ¡À 0.02,EI,4-tert-Butyltoluene,"Orlov, Misharev, et al., 1986"
 700-12-9,LBLHLM, C,7.92,PE,"Benzene, pentamethyl-","Howell, Goncalves, et al., 1984"
 1595-04-6,LLK, C,8.4 ¡À 0.1,EI,"Benzene, 1-butyl-3-methyl-","Lightner, Majeti, et al., 1972"
 1595-05-7,LLK, C,8.4 ¡À 0.1,EI,"Benzene, 1-methyl-4-butyl","Lightner, Majeti, et al., 1972"
 1007-26-7,RDSH, C,8.41 ¡À 0.04,EI,"Benzene, (2,2-dimethylpropyl)-","Bock, Seidl, et al., 1968"
 74684-31-4,Vertical value, C,7.57,PE,"Iridium, (1,1,1-trifluoro-2,4-pentanedionato-o,o'-)-bis¦Ç","Van Dam, Terpstra, et al., 1980"
 60917-67-1,LLK, C,7.4,PE,"Benzeneethanamine-5-bromo-2,4-dimethoxy-¦Á-methyl","Domelsmith, Eaton, et al., 1981"