CAS,Comment,Formula,IE,Method,Name,Refer
 1613-37-2,Vertical value; , C,8.00 ¡À 0.05,PE,"Quinoline, 1-oxide","Maier, Muller, et al., 1975"
 1532-72-5,LLK, C,7.9,PE,"Isoquinoline, 2-oxide","Maier, Muller, et al., 1975"
 71551-80-9,RDSH, C,8.35,EI,Indenyl radical,"Pottie and Lossing, 1963"
 12108-11-1,LLK, C,6.5 ¡À 0.1,EI,Aniline chromium tricarbonyl,"Gilbert, Leach, et al., 1973"
 12082-46-1, , C,6.53,PE,"Chromium, tris-¦Ç","Berry, Garner, et al., 1981"
 65823-95-2,Vertical value, C,7.37,PE,N-Isopropyl-3-formyl-2(1H)-pyridineselenone,"Dreier, Becher, et al., 1981"
 100-10-7,LLK, C,7.3 ¡À 0.1,PE,"Benzaldehyde, 4-(dimethylamino)-","Egdell, Green, et al., 1975"
 53746-69-3,, C,7.2,EI,"Methanimidamide, N'-(2-bromophenyl)-N,N-dimethyl-","Kuschel and Grutzmacher, 1974"
 63254-06-8,Vertical value, C,7.8,PE,N-Isopropyl-3-formyl-2(1H)-pyridinethione,"Dreier, Becher, et al., 1981"
 39898-48-1,LBLHLM, C,8.2,PE,"Benzenamine, 2,4,6-trimethyl-N-sulfinyl-","Louwen, Van Dam, et al., 1982"
 556-03-6,LBLHLM, C,8,PE,2-Amino-3-(4-hydroxyphenyl)-propanoic acid,"Cannington and Ham, 1983"
 611-74-5,Vertical value; , C,9.04,PE,"Benzamide, N,N-dimethyl-","Gal, Geribaldi, et al., 1985"
 12082-47-2, , C,7.17,PE,"Rhodium, bis(¦Ç2-ethene)(2,4-pentanedionato-O,O')-","Van Dam, Terpstra, et al., 1980"
 2146-61-4,, C,8.5,EI,1-Bromo-2-(3-methoxyphenyl)ethane,"Grutzmacher, 1970"
 588-63-6,, C,8.56 ¡À 0.05,EI,"Benzene, (3-bromopropoxy)-","Schwarz, Petersen, et al., 1977"
 120-66-1, , C,8.03 ¡À 0.02,EI,"Acetamide, N-(2-methylphenyl)-","Benezra and Bursey, 1972"
 103-89-9,LLK, C,7.75 ¡À 0.02,EI,"Acetamide, N-(4-methylphenyl)-","Benezra and Bursey, 1972"
 14425-64-0,, C,8.2,EI,"Benzene, 1-(2-bromoethyl)-4-methoxy-","Grutzmacher, 1970"
 537-92-8,, C,8.3 ¡À 0.2,EI,"Acetamide, N-(3-methylphenyl)-","Gamble, Gilbert, et al., 1970"
 579-10-2,Vertical value, C,8.81,PE,"Acetamide, N-methyl-N-phenyl-","Nakagaki, Kobayashi, et al., 1980"
 53666-46-9,, C,6.7 ¡À 0.1,EI,"Formamide,N-[2-chloro-5-(dimethylamino)phenyl]-","Kuschel and Grutzmacher, 1974"
 62635-53-4,, C,8.25 ¡À 0.05,EI,"Urea,N-(2-chlorophenyl)-N'-ethyl-","Baldwin, Loudon, et al., 1976"
 19384-08-8,, C,7.85 ¡À 0.05,EI,"Thiourea,N-(2-chlorophenyl)-N'-ethyl-","Baldwin, Loudon, et al., 1976"
 588-16-9,, C,8.0 ¡À 0.2,EI,3-Methoxyacetanilide,"Gamble, Gilbert, et al., 1970"
 51-66-1,, C,8.1 ¡À 0.2,EI,Methacetin,"Gamble, Gilbert, et al., 1970"
 603-71-4,LLK, C,8.8,PE,"Benzene, 1,3,5-trimethyl-2-nitro-","Kobayashi and Nagakura, 1974"
 150-30-1,LL, C,8.5,PE,DL-Phenylalanine,"Campbell, Marzluff, et al., 1994"
 619-84-1,LLK, C,7.1,PE,"Benzoic acid, 4-(dimethylamino)-","Meeks, Wahlborg, et al., 1981"
 65824-05-7,Vertical value, C,8.46,PE,N-Isopropyl-3-formyl-2(1H)-pyridone,"Dreier, Becher, et al., 1981"
 39998-21-5,, C,7.02 ¡À 0.02,EI,"Acetic acid, (1-methyl-2(1H)-pyridinylidene)-, methyl ester","Hvistendahl and Undheim, 1972"
 39998-22-6,, C,6.82 ¡À 0.02,EI,"Acetic acid, (1-methyl-4(1H)-pyridinylidene)-, methyl ester","Hvistendahl and Undheim, 1972"
 2103-49-3,, C,7.3,EI,"Methanimidamide, N'-(2-chlorophenyl)-N,N-dimethyl-","Kuschel and Grutzmacher, 1974"
 56125-93-0,Vertical value, C,8.2,PE,"2-Azabicyclo[3.2.1]octa-3,6-diene-2-carboxylic acid methyl ester","Barraclough, Bilgic, et al., 1979"
 16089-66-0,Vertical value, C,7.6,PE,4-Methoxyphenyl-N-methyl nitrone,"Armen, Braunstein, et al., 1979"
 53666-10-7,, C,7.3,EI,"Methanimidamide,N'-(2-iodophenyl)-N,N-dimethyl-","Kuschel and Grutzmacher, 1974"
 1125-90-2,Vertical value, C,8.22,PE,O-methoxybenzylidene methyl amine,"Fragala, Millefiori, et al., 1980"
 27347-09-7,Vertical value; , C,7.6,PE,N-(p-Methoxyphenyl)aziridine,"Crimaldi, Lichter, et al., 1982"
 65115-71-1,Vertical value; , C,9.72,PE,"2-Cyclohexenone,3-cyano,5,5-dimethyl-","Pfister-Guillouzo, Geribaldi, et al., 1982"
 52654-27-0, , C,7.1,PE,"Iridium, (2,4-pentanedionato-o,o'-)-bis¦Ç","Van Dam, Terpstra, et al., 1980"
 2745-54-2,LLK, C,8.63 ¡À 0.03,PI,"1-Chloromethyl-3,5-dimethylbenzene","Ponomarev, Takhimova, et al., 1974"
 53088-50-9,Vertical value, C,7.53,PE,"1H-1,3,2-Diazaborole,2,3-dihydro-1-methyl-2-phenyl-","Kroner, Noth, et al., 1974"
 22852-52-4,RDSH, C,7.15,EI,"Chromium, pentacarbonyl[1-(dimethylamino)ethylidene]-","Muller and Connor, 1969"
 22852-43-3,, C,7.11,EI,1-Ethylaminoethylidenechromium pentacarbonyl,"Muller and Connor, 1969"
 1848-75-5,Vertical value, C,7.85,PE,"Imidazolidine,2-(phenylimino)-","de Jong and Van Dam, 1980"
 80336-72-7, , C,8.2,PE,"Ethanone, 2-iodo-1-(4-methoxyphenyl)-","Distefano, Granozzi, et al., 1987"
 637-59-2,, C,9.0 ¡À 0.1,EI,"Benzene, (3-bromopropyl)-","Grutzmacher, 1970"
 2103-47-1,, C,7.8 ¡À 0.1,EI,"Methanimidamide, N,N-dimethyl-N'-(3-nitrophenyl)-","Kuschel and Grutzmacher, 1974"
 1205-59-0,, C,7.9 ¡À 0.1,EI,"Methanimidamide, N,N-dimethyl-N'-(4-nitrophenyl)-","Kuschel and Grutzmacher, 1974"
 73475-28-2,Vertical value, C,6.8,PE,"N,N-Dimethyltellurobenzamide","Berg, Henriksen, et al., 1982"
 13120-03-1,Vertical value; , C,7.33,PE,"N,N-Dimethylselenobenzamide","Berg, Henriksen, et al., 1982"
 635-46-1,LLK, C,7.00 ¡À 0.02,PE,"Quinoline, 1,2,3,4-tetrahydro-","Maier and Turner, 1973"
 10500-57-9,Vertical value; , C,9.1,PE,"Quinoline, 5,6,7,8-tetrahydro-","Aue and Bowers, 1979"
 15482-60-7,Vertical value; , C,7.7,PE,"N,N-(Dimethyl)thiobenzamide","Berg, Henriksen, et al., 1982"
 36556-06-6,Vertical value; , C,9.2,PE,"5,6,7,8-tetrahydroisoquinoline","Aue and Bowers, 1979"
 3334-89-2,LBLHLM, C,7.1,PE,N-Phenylazetidine,"Rozeboom, Houk, et al., 1982"
 38201-24-0,Vertical value; , C,8,PE,N-(4-Methylphenyl)aziridine,"Crimaldi, Lichter, et al., 1982"
 91-21-4,RDSH, C,8.63,EI,"Isoquinoline, 1,2,3,4-tetrahydro-","Loudon, Maccoll, et al., 1970"
 35203-02-2, , C,7.95,PE,"Methanimine, N-(2,6-dimethylphenyl)-","Distefano, Giumanini, et al., 1985"
 51232-43-0, , C,6.75,PE,"Rhodium, ¦Ç","Green, Powell, et al., 1984"
 87871-01-0, , C,6.95,PE,"Iridium, ¦Ç","Green, Powell, et al., 1984"
 85056-01-5,, C,7.1 ¡À 0.1,EI,Cyclopentadienyl(dimethylsulfoxide)manganese dicarbonyl,"Muller and Herberhold, 1968"
 16804-70-9,LL, C,6.6,DER,2-Phenyl-2-propyl radical,"Lias, Bartmess, et al., 1988"
 90653-55-7,Vertical value; , C,8.92,PE,"Benzene, 1-bromo-4-[2-(methylsulfonyl)ethenyl]-","Cauletti, Furlani, et al., 1984"
 2632-13-5, , C,8.2,PE,"Ethanone, 2-bromo-1-(4-methoxyphenyl)-","Distefano, Granozzi, et al., 1987"
 16529-82-1,LLK, C,8.3,PE,Tricyclo[4.2.1.0,"Brogli, Eberbach, et al., 1973"
 56170-01-5,LBLHLM, C,8.72,PE,"1H-Indene, 3a,4,7,7a-tetrahydro-, cis-","Turecek, Pancir, et al., 1985"
 766-29-0,LLK, C,8.14,PE,"Spiro[4.4]nona-1,3-diene","Bischof, Gleiter, et al., 1974"
 81969-72-4,LBLHLM, C,8.2,PE,"Tricyclo[6.1.0.0]nonane-(1¦Á,2¦Â,4¦Â,8¦Á)-","Spanget-Larsen, Gleiter, et al., 1982"
 60694-92-0,Vertical value, C,9.54,PE,"Benzonitrile, 4-(iodoacetyl)-","Distefano, Granozzi, et al., 1987"
 1005-55-6,Vertical value, C,7.68,PE,"2-Propanone, 1-(5-methyl-3H-1,2-dithiol-3-ylidene)-","Gleiter, Gygax, et al., 1975"
 1193-82-4,Vertical value; , C,8.85,PE,"Benzene, (methylsulfinyl)-","Mohraz, Jian-qi, et al., 1981"
 69032-03-7,Vertical value, C,7.98,PE,"1,3,2-Dithiastannolane,2,2-diethyl-4-methyl-","Delmas and Maire, 1978"
 43022-60-2,, C,8.1 ¡À 0.8,EI,"Disulfide, (1-methylethyl) (1,1-dimethylethyl)","Hawari, Griller, et al., 1986"
 64-10-8,, C,8.55,EI,"Urea, phenyl-","Baldwin, Loudon, et al., 1976"
 1520-26-9,, C,8.2,EI,"Thiourea,(2-hydroxyphenyl)-","Baldwin, Loudon, et al., 1976"
 24614-07-1,, C,7.40 ¡À 0.05,PE,"Thiazolo[3,2-c]pyrimidin-4-ium, 2,3-dihydro-8-hydroxy-5-methyl-, hydroxide, inner salt","Pedersen and Undheim, 1984"
 93517-71-6,, C,7.97 ¡À 0.05,PE,"3H-Pyrimidine-4-thione, 5-hydroxy-2-methyl-3-vinyl-","Pedersen and Undheim, 1984"
 100-15-2,LLK, C,8.1,PE,"Benzenamine, N-methyl-4-nitro-","Khalil, Meeks, et al., 1973"
 612-28-2,Vertical value, C,8.02,PE,"Benzenamine, N-methyl-2-nitro-","Khalil, Meeks, et al., 1973"
 15010-23-8,, C,8.40 ¡À 0.05,EI,"Acetamide,N-3-pyridinyl-,1-oxide","Undheim, El-Gendy, et al., 1974"
 14906-56-0,, C,7.76 ¡À 0.05,EI,"Acetamide,N-4-pyridinyl-,1-oxide","Undheim, El-Gendy, et al., 1974"
 6994-14-5,, C,8.05 ¡À 0.05,EI,"Acetamide,N-2-pyridinyl-,N'-oxide","Undheim, El-Gendy, et al., 1974"
 614-00-6,Vertical value, C,9.01,PE,"Benzenamine, N-methyl-N-nitroso-","Battiste, Davis, et al., 1975"
 103-85-5,, C,8.1,EI,"Thiourea, phenyl-","Baldwin, Loudon, et al., 1976"
 23979-29-5,Vertical value, C,9.05 ¡À 0.05,PE,"3,4-Diazatricyclo[4.2.1.0","Brogli, Eberbach, et al., 1973"
 70517-50-9,Vertical value, C,7.76,PE,"6H-Pyrazolo[1,2-a][1,2,4,5]tetrazine, hexahydro-2,3-dimethyl-","Rademacher, Breier, et al., 1979"
 16104-45-3, , C,8.23 ¡À 0.05,PE,"3,5,6-Methenocyclopentapyrazole,3,3a,4,5,6,6a-hexahydro-","Boyd, Bunzli, et al., 1976"
 1741-84-0,, C,8.40 ¡À 0.05,EI,"Propane, 2-methyl-1-(propylthio)-","Khvostenko and Furlei, 1968"
 106-44-5,LL, C,8.31 ¡À 0.08,EI,p-Cresol,"Selim, Fahmey, et al., 1991"
 100-51-6,LBLHLM, C,8.26 ¡À 0.05,EI,Benzyl alcohol,"Selim, Rabbih, et al., 1987"
 95-48-7,LBLHLM, C,8.14,EI,"Phenol, 2-methyl-","Russell, Freiser, et al., 1983"
 108-39-4,LL, C,8.36 ¡À 0.11,EI,"Phenol, 3-methyl-","Selim, Fahmey, et al., 1991"
 100-66-3,LBLHLM, C,8.25 ¡À 0.03,PI,Anisole,"Ponomarev, Arapov, et al., 1986"
 149-74-6,Vertical value, C,9.52,PE,"Silane, dichloromethylphenyl-","Veszpremi, Harada, et al., 1984"
 74773-77-6,Vertical value, C,8.59,PE,"2-Butanone, 4-trimethylhydrazino-","Nelsen, Kessel, et al., 1980"
 49840-68-8,LBLHLM, C,6.62 ¡À 0.05,EQ,"1H-1,2-Diazepine, hexahydro-1,2-dimethyl","Rumack, 1986"
 3112-85-4,LLK, C,9.5,PE,"Sulfone, methyl phenyl","Mohraz, Jian-qi, et al., 1981"
 49840-60-0,LBLHLM, C,6.83 ¡À 0.05,EQ,"1-Piperidinamine, N,N-dimethyl-","Rumack, 1986"
 22825-58-7,Vertical value; , C,8.5,PE,"Pyrazolidine, 1,2-diethyl-","Nelsen, 1984"
 38704-92-6,Vertical value; , C,8.31,PE,"Pyridazine, hexahydro-1,2,3-trimethyl-","Nelsen, 1984"
 33709-65-8,LBLHLM, C,7.2,PE,"Imidazolidine, 1,2,2,3-tetramethyl-","Worley, Hargis, et al., 1982"
 150-76-5,LLK, C,7.5,EI,Mequinol,"Cooks, Bertrand, et al., 1973"
 1004-36-0,LBLHLM, C,9.03,EI,"4H-Pyran-4-one, 2,6-dimethyl-","Grutzmacher and Spilker, 1985"
 27943-47-1,LLK, C,9.26,PE,"Bicyclo[2.2.1]heptane, 2,5-dione","Frost, Westwood, et al., 1980"
 675-09-2,LBLHLM, C,8.51,EI,"2H-Pyran-2-one, 4,6-dimethyl-","Grutzmacher and Spilker, 1985"
 90-01-7,Vertical value, C,8.58,PE,Salicyl alcohol,"Eck, Schweig, et al., 1978"
 6236-71-1,Vertical value, C,9.00 ¡À 0.05,PE,"Bicyclo(2.2.1)heptane-2,3-dione","Dougherty, Blankespoor, et al., 1979"
 60582-65-2,LBLHLM, C,9.4,PE,"Bicyclo[4.1.0]heptane-2,5-dione","Gleiter, Jahne, et al., 1985"
 694-98-4,Vertical value; , C,8.86,PE,Bicyclo[2.2.1]hept-2-en-5-one,"Hentrich, Gunkel, et al., 1974"
 694-71-3,Vertical value; , C,9.25,PE,Bicyclo[2.2.1]hept-2-en-7-one,"Hentrich, Gunkel, et al., 1974"
 1121-65-9,LBLHLM, C,8.24,EI,"3,5-Cycloheptadien-1-one","Russell, Freiser, et al., 1983"
 3350-02-5, , C,8.9,PE,"1,5-Dimethyltricyclo[2.1.0.0","Gleiter, Haider, et al., 1984"
 695-05-6,, C,9.01,PE,Nortricyclone,"Bodor, Dewar, et al., 1970"
 4729-06-0,Vertical value, C,8.04,PE,"2-Oxabicyclo[3.2.1]octa-3,6-diene","Barraclough, Bilgic, et al., 1979"
 37773-21-0,Vertical value; , C,8.4,PE,2-Methylseleno benzene,"Baker, Armen, et al., 1981"
 4346-64-9,LLK, C,7.4,PE,Methylseleno benzene,"Baker, Armen, et al., 1981"
 4749-68-2,Vertical value, C,7.96,PE,"Imidazolidine,2-(2-chlorophenylimino)-","de Jong and Van Dam, 1980"
 14062-80-7,Vertical value; , C,9.16,PE,"4-chloro-N,N-dimethylbenzamide","Gal, Geribaldi, et al., 1985"
 328-57-4,Vertical value, C,9.55,PE,Phenyl methyl difluorosilane,"Veszpremi, Harada, et al., 1984"
 29977-00-2,Vertical value, C,7.63,PE,"[1,2]Dithiolo[1,5-b][1,2]dithiole-7-s(iv),3,4-dimethyl-","Gleiter, Hornung, et al., 1971"
 2080-35-5,RDSH, C,7.47,EI,"[1,2]Dithiolo[1,5-b][1,2]dithiole-7-s(iv),2,5-dimethyl-","Johnstone and Ward, 1969"
 53666-43-6,, C,7.7 ¡À 0.1,EI,"Methanimidamide,N'-(2-chloro-5-nitrophenyl)-N,N-dimethyl-","Kuschel and Grutzmacher, 1974"
 2760-32-9,, C,8.45 ¡À 0.05,EI,2-Chloropropionanilide,"Baldwin, Loudon, et al., 1976"
 108-40-7,Vertical value, C,8.44,PE,"Benzenethiol, 3-methyl-","Dewar, Ernstbrunner, et al., 1974"
 100-53-8,LLK, C,8.5,PE,Benzenemethanethiol,"Frost, Herring, et al., 1972"
 100-68-5,LLK, C,7.93,PE,"Benzene, (methylthio)-","Behan, Johnstone, et al., 1976"
 137-06-4,Vertical value, C,8.31,PE,"Benzenethiol, 2-methyl-","Dewar, Ernstbrunner, et al., 1974"
 39066-37-0,Vertical value, C,8.03,PE,"2-Thiabicyclo[3.2.1]octa-3,6-diene","Barraclough, Bilgic, et al., 1979"
 106-45-6, , C,8,PE,"Benzenethiol, 4-methyl-","Dewar, Ernstbrunner, et al., 1974"
 872-89-9,Vertical value, C,7.6,PE,"Benzene,(methyltelluro)-","Tschmutowa and Bock, 1976"
 33292-28-3,, C,7.2 ¡À 0.1,EI,Arsinecyclopentadienylmanganese dicarbonyl,"Fischer, Bathelt, et al., 1968"
 12300-46-8,LLK, C,7.28,EI,"Manganese,dicarbonyl(¦Ç","Muller, Fenderl, et al., 1971"
 105961-74-8, , C,8.6,PE,"Cyclopropane, 1-ethynyl-1-ethenyl-","Eckert-Maksie, Gleiter, et al., 1991"
 544-25-2,LLK, C,8.29,PI,"1,3,5-Cycloheptatriene","Traeger and McLoughlin, 1978"
 121-46-0,LBLHLM, C,8.4,PE,"2,5-Norbornadiene","Ohno, Ishide, et al., 1985"
 108-88-3,LL, C,8.8276 ¡À 0.0006,TE,Toluene,"Lu, Eiden, et al., 1992"
 2396-63-6,LLK, C,9.85 ¡À 0.01,PE,"1,6-Heptadiyne","Traeger and McLoughlin, 1978"
 22635-78-5,, C,9.02,PE,"Spiro[3.3]hepta-1,5-diene","Bodor, Dewar, et al., 1970"
 278-06-8,LLK, C,7.8,PE,"Tetracyclo[3.2.0.0(2,7).0(4,6)]heptane","Martin, Heller, et al., 1974"
 35618-58-7,Vertical value, C,8.82,PE,Tricyclo[4.1.0.0,"Bischof, Gleiter, et al., 1978"
 765-46-8,LLK, C,8.14,PE,"Spiro[2,4]hepta-4,6-diene","Gleiter, Heilbronner, et al., 1971"
 20679-59-8,LBLHLM, C,7.9,EI,"5-Methylene 1,3-cyclohexadiene","Bally, Hasselmann, et al., 1985"
 2422-86-8,LLK, C,8.35,PE,"Bicyclo[3.2.0]hepta-2,6-diene","Traeger and McLoughlin, 1978"
 3217-87-6,LBLHLM, C,8.6 ¡À 0.1,EI,"3-Methylene-1,4-cyclohexadiene","Bartmess, 1982"
 57212-57-4,Vertical value, C,8.39,PE,"1,2,4,5-Hexatetraene, 3-methyl-","Bischof, Gleiter, et al., 1975"
 67254-49-3,LBLHLM, C,8.8,EI,"Bicyclo[2.2.0]hex-2-ene,5-methylene","Bally, Hasselmann, et al., 1985"
 17314-38-4,Vertical value, C,9.71,PE,"Stannane, 3-butenyltrimethyl-","Brown, Eaton, et al., 1974"
 32707-17-8,, C,8.9 ¡À 0.1,EI,"1,3,2-Diazaphosphetidin-4-one,2-(diethylamino)-2,2-difluoro-2,2-dihydro-1,3-dimethyl-","Baldwin, Loudon, et al., 1977"
 40805-50-3,Vertical value, C,10.1,PE,"Benzonitrile, 4-(chloroacetyl)-","Distefano, Granozzi, et al., 1987"
 762-46-9,LLK, C,9.30 ¡À 0.03,PE,"Hydroperoxide, 1-methylhexyl","Ashmore and Burgess, 1977"
 764-81-8,LLK, C,9.48 ¡À 0.03,PE,"Hydroperoxide, heptyl","Ashmore and Burgess, 1977"
 589-55-9, , C,9.61 ¡À 0.03,PE,4-Heptanol,"Ashmore and Burgess, 1977"
 543-49-7,LLK, C,9.70 ¡À 0.03,PE,2-Heptanol,"Ashmore and Burgess, 1977"
 111-70-6,LL, C,10.4 ¡À 0.1,EI,1-Heptanol,"Haib and Stahl, 1990"
 589-82-2, , C,9.68 ¡À 0.03,PE,3-Heptanol,"Ashmore and Burgess, 1977"
 17348-59-3,Vertical value; , C,9.2,PE,"Propane, 2-methyl-2-(1-methylethoxy)-","Aue and Bowers, 1979"
 4747-07-3,, C,¡Ü9.48,PI,"Hexane, 1-methoxy-","Ahmmed, Hudson, et al., 1990"
 17952-11-3,Vertical value, C,9.49,PE,"Pentane, 1-ethoxy-","Bachiri, Mouvier, et al., 1980"
 51675-53-7,Vertical value, C,8.85,PE,"Stannane,(cyclopropylmethyl)trimethyl-","Brown, Eaton, et al., 1974"
 59049-81-9,Vertical value, C,7.73,PE,"Mercury, (1,1-dimethylethyl)(1-methylethyl)-","Fehlner, Ulman, et al., 1976"
 142-82-5,LL, C,10.15,EST,Heptane,"Luo and Pacey, 1992"
 938-24-9,Vertical value, C,9.1,PE,"Indan-1,2,3-trione","Bischof, Gleiter, et al., 1975"
 100-06-1,LLK, C,8.2 ¡À 0.1,PE,4-Acetylanisole,"Egdell, Green, et al., 1975"
 93-89-0, , C,8.9,PE,"Benzoic acid, ethyl ester","Meeks, Wahlborg, et al., 1981"
 65338-62-7,Vertical value, C,7.61,PE,Divinylsulfide-(¦Ç'-s)-chromium pentacarbonyl,"Weiner and Lattman, 1978"
 73357-16-1,LBLHLM, C,8.1,PE,Methyl di-(3-furyl)silane,"Zykov, Erchak, et al., 1983"
 1911-24-6,LBLHLM, C,8,PE,Methyl-di-(2-furyl)silane,"Zykov, Erchak, et al., 1983"
 12082-08-5,LLK, C,7.28,CTS,Benzenechromiumtricarbonyl,"Kobayashi, Kobayashi, et al., 1973"
 1197-19-9,LLK, C,7.6,PE,"Benzonitrile, 4-(dimethylamino)-","Modelli and Distefano, 1981"
 20099-89-2,Vertical value, C,9.9,PE,"Benzonitrile, 4-(bromoacetyl)-","Distefano, Granozzi, et al., 1987"
 3418-46-0,, C,7.46,PE,"2H-Benzimidazole-2-thione,1,3-dihydro-1,3-dimethyl-","Guimon, Arbelot, et al., 1975"
 7291-01-2,Vertical value; , C,9.46,PE,"Benzamide, N,N-dimethyl-4-nitro-","Gal, Geribaldi, et al., 1985"
 2727-69-7,Vertical value, C,8.73 ¡À 0.05,PE,"Acetamide, N-(3-methylphenyl)- 2,2,2-trifluoro-","Szepes, Distefano, et al., 1974"
 31741-56-7,Vertical value, C,7.95,PE,"Iron, tricarbonyl[(1,2,3,4-¦Ç)-2,3-dimethyl-1,3-butadiene]-","Worley, Webb, et al., 1980"
 12108-36-0,Vertical value, C,7.94,PE,"Iron,tricarbonyl[¦Ç","Worley, Webb, et al., 1980"
 85944-69-0,Vertical value, C,7.8,PE,"Iron, ¦Ç","Guimon, Pfister-Guillouzo, et al., 1985"
 350-96-9,Vertical value, C,8.61 ¡À 0.05,PE,"Acetamide,2,2,2-trifluoro-N-(4-methylphenyl)-","Szepes, Distefano, et al., 1974"
 2727-68-6,Vertical value, C,8.84 ¡À 0.05,PE,"Acetamide,2,2,2-trifluoro-N-(2-methylphenyl)-","Szepes, Distefano, et al., 1974"
 99-75-2,LLK, C,8.4,PE,"Benzoic acid, 4-methyl-, methyl ester","Meeks, Wahlborg, et al., 1981"
 140-39-6,, C,7.84 ¡À 0.02,EI,"Acetic acid, 4-methylphenyl ester","Benezra and Bursey, 1972"
 501-52-0,, C,9.0 ¡À 0.1,EI,Hydrocinnamic acid,"Occolowitz, 1967"
 99-36-5,LLK, C,8.5,PE,"Benzoic acid, 3-methyl-, methyl ester","Meeks, Wahlborg, et al., 1981"
 89-71-4,LLK, C,8.6,PE,"Benzoic acid, 2-methyl-, methyl ester","Meeks, Wahlborg, et al., 1981"
 122-46-3,, C,9.0 ¡À 0.2,EI,m-Cresyl acetate,"Gamble, Gilbert, et al., 1971"
 632-46-2,LLK, C,8.9,PE,"Benzoic acid, 2,6-dimethyl-","Meeks, Wahlborg, et al., 1981"
 586-37-8,RDSH, C,8.53 ¡À 0.05,EI,3-Methoxyacetophenone,"Pignataro, Foffani, et al., 1966"
 5342-84-7,LBLHLM, C,8.7,PE,"Sulfone, methyl styryl","Cauletti, Furlani, et al., 1984"
 533-18-6, , C,8.38 ¡À 0.02,EI,"Acetic acid, 2-methylphenyl ester","Benezra and Bursey, 1972"
 67843-62-3,Vertical value; , C,8.85,PE,Tricyclo[4.2.1.0,"Martin, Schiwek, et al., 1978"
 3604-36-2,Vertical value; , C,8.92,PE,"Methyl bicyclo[2.2.1]hepta-2,5-diene carboxylate","Houk, Rondan, et al., 1983"
 68347-26-2,Vertical value, C,8.84,PE,"Bicyclo[3.2,2]non-6-ene-8,9-dione","Gleiter, Doerner, et al., 1996"
 60526-42-3,LLK, C,8.2,PE,"Bicyclo[2.2.1]hept-5-ene-2,3-dione,7,7-dimethyl-","Dougherty, Blankespoor, et al., 1979"
 70705-73-6,LLK, C,8.4,PE,"Spiro[bicyclo[2.2.1]heptane-7,1'-cyclopropane]-2,3-dione","Dougherty, Blankespoor, et al., 1979"
 94499-48-6,LBLHLM, C,9.14,PE,Syn-tricyclo[6.1.0.0,"Gleiter, Jahne, et al., 1985"
 67843-61-2,Vertical value; , C,8.85,PE,Tricyclo[4.2.1.0,"Martin, Schiwek, et al., 1978"
 4079-52-1,, C,8.60 ¡À 0.05,EI,2-Methoxy-1-phenyl-ethanone,"Pignataro, Foffani, et al., 1966"
 121-98-2,LLK, C,8.24,PE,"Benzoic acid, 4-methoxy-, methyl ester","Behan, Johnstone, et al., 1976"
 33029-77-5,Vertical value, C,7.79 ¡À 0.02,PE,¦Ç,"Lichtenberger, Renshaw, et al., 1993"
 52445-09-7,, C,8.27,PE,Cyclobutadienyl methyl ketone iron tricarbonyl,"Dewar and Worley, 1969"
 1200-06-2,, C,7.9 ¡À 0.2,EI,"Phenol, 4-methoxy-, acetate","Gamble, Gilbert, et al., 1971"
 5451-83-2,, C,8.3 ¡À 0.2,EI,"Phenol, 3-methoxy-, acetate","Gamble, Gilbert, et al., 1971"
 57744-40-8,Vertical value, C,9.14,PE,"Bicyclo[3.2.2]nonane-2,3,4-trione","Bischof, Gleiter, et al., 1975"
 4426-75-9,, C,8.7,EI,"1H-2-Benzothiopyran, 3,4-dihydro-","Loudon, Maccoll, et al., 1970"
 87473-92-5, , C,7.4,PE,"2,2-Dimethyl-1,3-benzodithiole","Gleiter and Uschmann, 1986"
 35822-50-5,Vertical value, C,8.75,PE,"Benzene,[2-(methylthio)ethenyl]-(Z)-","Bock, Wagner, et al., 1972"
 5296-64-0,, C,7.91 ¡À 0.01,PI,Allylphenyl sulfide,"Trofimov, Mel'der, et al., 1975"
 115227-74-2, , C,8.1,PE,"1-Thiacyclodeca-3,8-diyne","Gleiter, Rittinger, et al., 1991"