CAS,Comment,Formula,IE,Method,Name,Refer
 55666-83-6,Vertical value, C,8.27,PE,"1,3,2-Diazaphospholidine, 1,3-dimethyl-2-ethoxy-","Worley, Hargis, et al., 1982"
 21776-17-0, , C,7.9,PE,"Phosphonic diamide, p-ethenyl-N,N,N',N'-tetramethyl-","Zverev, Villem, et al., 1981"
 554-70-1,LLK, C,7.6,PE,Triethylphosphine,"Aue and Bowers, 1979"
 5745-32-4,LBLHLM, C,7.6,PE,"Phosphine, diethyl-ethylthio-","Zverev, Bazhanova, et al., 1983"
 14524-92-6,Vertical value; , C,8.71 ¡À 0.05,PE,Methyl rhenium pentacarbonyl,"Higginson, Lloyd, et al., 1975"
 87-61-6,LLK, C,9.18 ¡À 0.03,PE,"Benzene, 1,2,3-trichloro-","Ruscic, Klasinc, et al., 1981"
 53020-10-3,Vertical value, C,8.18,PE,"Thieno[2,3-b]thiophene,2-iodo-","Coustale, Guimon, et al., 1976"
 53020-11-4,Vertical value, C,8.24,PE,"Thieno[2,3-b]thiophene,3-iodo-","Coustale, Guimon, et al., 1976"
 36556-50-0,, C,9.29 ¡À 0.02,PE,"Benzene, 1,2-dichloro-3-fluoro-","Mohraz, Maier, et al., 1980"
 1435-48-9,, C,9.12 ¡À 0.02,PE,"1,3-Dichloro-4-fluorobenzene","Mohraz, Maier, et al., 1980"
 2268-05-5,, C,9.32 ¡À 0.02,PE,"1,3-Dichloro-2-fluorobenzene","Mohraz, Maier, et al., 1980"
 1435-46-7,, C,9.39 ¡À 0.02,PE,"Benzene,1,3-dichloro-5-fluoro-","Mohraz, Maier, et al., 1980"
 348-59-4,, C,9.09 ¡À 0.02,PE,"Benzene,1,4-dichloro-2-fluoro-","Mohraz, Maier, et al., 1980"
 1435-49-0,, C,9.16 ¡À 0.02,PE,"1,2-Dichloro-4-fluorobenzene","Mohraz, Maier, et al., 1980"
 120-82-1,LLK, C,9.04 ¡À 0.03,PE,"Benzene, 1,2,4-trichloro-","Ruscic, Klasinc, et al., 1981"
 108-70-3,LBLHLM, C,9.2,PE,"Benzene, 1,3,5-trichloro-","Maier and Thommen, 1982"
 21250-21-5,Vertical value; , C,9.46,PE,"Benzenamine, 3,5-dichloro-N-sulfinyl-","Louwen, Van Dam, et al., 1982"
 688-62-0, , C,7.6,PE,Ethyl phosphorotrithioite (ets)3p,"Zverev, Bazhanova, et al., 1983"
 4985-62-0,RDSH, C,8.6 ¡À 0.1,EI,Phenylthio radical,"Palmer and Lossing, 1962"
 38361-37-4,, C,9.37 ¡À 0.02,PE,"Benzene,2-chloro-1,3-difluoro-","Mohraz, Maier, et al., 1980"
 2367-91-1,, C,9.19 ¡À 0.02,PE,"1-Chloro-2,5-difluorobenzene","Mohraz, Maier, et al., 1980"
 1435-44-5,, C,9.17 ¡À 0.02,PE,"1-Chloro-2,4-difluorobenzene","Mohraz, Maier, et al., 1980"
 1435-43-4,, C,9.40 ¡À 0.02,PE,"Benzene,1-chloro-3,5-difluoro-","Mohraz, Maier, et al., 1980"
 696-02-6,, C,9.24 ¡À 0.02,PE,"Benzene, 4-chloro-1,2-difluoro-","Mohraz, Maier, et al., 1980"
 13601-24-6,LLK, C,8.4,PE,"Manganese, pentacarbonylmethyl-","Lichtenberger and Fenski, 1974"
 71271-99-3, , C,7.6,PE,"Iron, hexacarbonyl[¦Ç-[heptahydrotriborato-(2-)]]di-, (fe-fe)","Andersen, DeKock, et al., 1981"
 56898-54-5,Vertical value, C,10.04,PE,"Pyridine,4-trifluoromethyl)-,compound with borane(3)","Weiner and Lattman, 1975"
 873-51-8,LLK, C,9.3,PE,"Borane, dichlorophenyl-","Ramsey and O'Neill, 1977"
 368-98-9,Vertical value, C,9.61,PE,"Borane, difluorophenyl-","Ramsey and O'Neill, 1977"
 1282-31-1, , C,9.1,PE,¦Ç,"Terpstra, Louwen, et al., 1984"
 106-41-2,Vertical value, C,8.52,PE,"Phenol, 4-bromo-","Baker, May, et al., 1968"
 95-56-7,, C,9.1 ¡À 0.1,EI,"Phenol, 2-bromo-","Grutzmacher and Hubner, 1971"
 54818-75-6,, C,7.61 ¡À 0.05,EI,"2-Pyridinamine,5-chloro-N-methyl-,1-oxide","Undheim, El-Gendy, et al., 1974"
 54818-77-8,, C,7.40 ¡À 0.05,EI,"2(1H)-Pyridinimine,5-chloro-1-methoxy-","Undheim, El-Gendy, et al., 1974"
 1192-89-8,LLK, C,9.1,PE,bromophenylmercury,"Baidin, Chizhov, et al., 1981"
 12192-46-0, , C,8.2,PE,"Iron, bromotricarbonyl(¦Ç3-2-propenyl)-","Louwen, Hart, et al., 1982"
 12189-10-5,LBLHLM, C,8.2,PE,"Iron, tricarbonyliodo(¦Ç3-2-propenyl)-","Louwen, Hart, et al., 1982"
 1120-89-4,, C,9.44,EI,[2H]benzene,"Wacks and Dibeler, 1959"
 10080-39-4,LLK, C,8.8,PE,"Cyclohexene, 1-mercuric chloride","Baidin, Chizhov, et al., 1981"
 12144-85-3,LBLHLM, C,7.3,PE,"Cobalt, ¦Ç","Louwen, Hart, et al., 1982"
 77376-08-0,Vertical value; , C,9.58,PE,"1-Butyne, 3,3-dimethyl-1-dichlorophosphinyl-","Cabelli, Cowley, et al., 1981"
 108-86-1,LBLHLM, C,9,PE,"Benzene, bromo-","Fujisawa, Ohno, et al., 1986"
 62595-44-2,Vertical value, C,9.05,PE,"3,3'-Bicylopropenyl","Boese, Blaser, et al., 1993"
 2396-01-2,LBLHLM, C,8.32 ¡À 0.04,PE,Phenyl radical,"Butcher, Costa, et al., 1987"
 1277-45-8,LBLHLM, C,8.6,PE,¦Ç,"Terpstra, Louwen, et al., 1984"
 101615-77-4,, C,8.3,EI,"Pyridinium,3-hydroxy-1-methoxy-,hydroxide,inner salt","Gronneberg, Hurum, et al., 1974"
 1122-96-9,LLK, C,7.98 ¡À 0.05,EI,"Pyridine, 4-methoxy-1-oxide-","Gronneberg, Hurum, et al., 1974"
 1193-62-0,, C,8.65 ¡À 0.05,EI,Methyl pyrrole-2-carboxylate,"Linda, Marino, et al., 1971"
 20773-98-2,LLK, C,8.21 ¡À 0.05,EI,"Pyridine, 2-methoxy-, 1-oxide","Gronneberg, Hurum, et al., 1974"
 40775-55-1,, C,8.32 ¡À 0.05,EI,"2(1H)-Pyridinone,1-methoxy-","Gronneberg, Hurum, et al., 1974"
 1703-18-0,, C,8.49 ¡À 0.05,EI,"4(1H)-Pyridinone,1-methoxy-","Gronneberg, Hurum, et al., 1974"
 14906-61-7,LLK, C,8.40 ¡À 0.05,EI,"Pyridine, 3-methoxy-, 1-oxide","Gronneberg, Hurum, et al., 1974"
 4648-63-9,, C,8.71,PE,"Arsine, dimethyl[3,3,3-trifluoro-1-(trifluoromethyl)-1-propenyl], (Z)-","Cullen, Frost, et al., 1972"
 4648-64-0,, C,8.61,PE,"Arsine, dimethyl[3,3,3-trifluoro-1-(trifluoromethyl)-1-propenyl]-, (E)-","Cullen, Frost, et al., 1972"
 32637-37-9,, C,8.53 ¡À 0.05,EI,"3-Pyridinol, 2-(methylthio)-","Fjeldstad and Undheim, 1973"
 22989-67-9,, C,8.04 ¡À 0.05,EI,"2(1H)-Pyridinethione, 3-hydroxy-6-methyl-","Gronneberg and Undheim, 1972"
 35186-00-6,, C,8.22,PE,"2-Buten-2-amine, 1,1,1,4,4,4-hexafluoro-N,N-dimethyl-","Cullen, Frost, et al., 1972"
 1072-83-9,, C,8.72 ¡À 0.05,EI,"Ethanone, 1-(1H-pyrrol-2-yl)-","Linda, Marino, et al., 1971"
 7295-76-3,LLK, C,9.34 ¡À 0.02,EI,"Pyridine, 3-methoxy-","Gronneberg and Undheim, 1972"
 1628-89-3,LLK, C,8.7,PE,"Pyridine, 2-methoxy-","Cook, El-Abbady, et al., 1977"
 1121-78-4,LLK, C,9.15 ¡À 0.05,EI,"3-Pyridinol, 6-methyl-","Gronneberg and Undheim, 1972"
 694-85-9,LLK, C,8.41,PE,"2(1H)-Pyridinone, 1-methyl-","Dreier, Becher, et al., 1981"
 695-19-2,LLK, C,8.48 ¡À 0.02,EI,1-Methyl-4(1H)-pyridinone,"Gronneberg and Undheim, 1972"
 1003-67-4,Vertical value, C,8.17,PE,"Pyridine, 4-methyl-, 1-oxide","Weiner and Lattman, 1974"
 3279-76-3,Vertical value, C,8.19 ¡À 0.03,PE,"2(1H)-Pyridone, 6-methyl-","Garner, Hillier, et al., 1980"
 1003-73-2,Vertical value; , C,8.20 ¡À 0.02,PE,"Pyridine, 3-methyl-, 1-oxide","Maier and Muller, 1974"
 931-19-1,Vertical value; , C,8.21 ¡À 0.02,PE,"Pyridine, 2-methyl-, 1-oxide","Maier and Muller, 1974"
 620-08-6,LLK, C,9.58 ¡À 0.02,EI,"Pyridine, 4-methoxy-","Gronneberg and Undheim, 1972"
 73229-70-6,Vertical value; , C,8.69 ¡À 0.03,PE,6-Methyl-2-pyridinol,"Garner, Hillier, et al., 1980"
 25065-00-3,, C,7.90 ¡À 0.02,EI,"Pyridinium,3-hydroxy-1-methyl-,hydroxide,inner salt","Gronneberg and Undheim, 1972"
 935-69-3,Vertical value, C,8.64,PE,"7H-Purin-6-amine, 7-methyl-","Lin, Yu, et al., 1980"
 443-72-1,Vertical value, C,8.15,PE,"1H-Purin-6-amine, N-methyl-","Lin, Yu, et al., 1980"
 700-00-5, , C,7.9 ¡À 0.1,EI,"Adenine, 9-methyl-","Verkin, Sukodub, et al., 1976"
 32714-42-4,, C,8.09,PE,"Nickel,[(1,2,3,4,5-¦Ç","Evans, Guest, et al., 1974"
 2240-85-9,Vertical value; , C,7.22,PE,"2(1H)-Pyridineselone, 1-methyl-","Dreier, Becher, et al., 1981"
 109-06-8,LLK, C,9.37 ¡À 0.05,EI,"Pyridine, 2-methyl-","Zaretskii, Oren, et al., 1976"
 108-89-4,LLK, C,9.46 ¡À 0.05,EI,"Pyridine, 4-methyl-","Zaretskii, Oren, et al., 1976"
 108-99-6,LLK, C,8.9,PE,"Pyridine, 3-methyl-","Modelli and Distefano, 1981"
 7092-27-5, , C,8.2,PE,7-Azanorbornadiene,"Altenbach, Constant, et al., 1991"
 72975-30-5,LL, C,6.89,DER,Phenyl silyl radical,"Nagano, Murthy, et al., 1993"
 62-53-3,LBLHLM, C,7.736 ¡À 0.008,PE,Aniline,"Meek, Sekreta, et al., 1985"
 18438-38-5,LLK, C,8.47 ¡À 0.02,EI,"Pyridine, 2-(methylthio)-","Gronneberg and Undheim, 1972"
 18794-33-7,LLK, C,8.93 ¡À 0.02,EI,"Pyridine, 3-(methylthio)-","Gronneberg and Undheim, 1972"
 22581-72-2,LLK, C,9.00 ¡À 0.02,EI,"Pyridine, 4-(methylthio)-","Gronneberg and Undheim, 1972"
 2044-27-1, , C,7.84 ¡À 0.02,EI,"2(1H)-Pyridinethione, 1-methyl-","Gronneberg and Undheim, 1972"
 137-07-5, , C,7.6,PE,"Benzenethiol, 2-amino-","Zverev, Ashrafullina, et al., 1982"
 6887-59-8,LLK, C,7.54 ¡À 0.02,EI,"4(1H)-Pyridinethione,1-methyl-","Gronneberg and Undheim, 1972"
 638-21-1,LLK, C,8.47 ¡À 0.01,PE,Phenylphosphine,"Debies and Rabalais, 1974"
 136202-28-3,RDSH, C,8.54,EI,Methylcyclopentadienyl radical,"Pottie and Lossing, 1963"
 24371-94-6,LLK, C,9.2,PE,"Mercury, chloro(cyclohexyl)","Baidin, Chizhov, et al., 1981"
 542-18-7,LLK, C,10.10 ¡À 0.01,PI,"Cyclohexane, chloro-","Sergeev, Akopyan, et al., 1973"
 55204-46-1,Vertical value, C,9.04,PE,"3H-Pyrazole,3-chloro-4,5-dihydro-3,5,5-trimethyl-","Houk, Chang, et al., 1975"
 7217-01-8,, C,9.7,PE,Trivinylborane,"Holliday, Reade, et al., 1971"
 74725-75-0,LBLHLM, C,8.8,PE,"Bicyclo[2.1.1]hexane,1-iodo-","Della, Abeywickrema, et al., 1984"
 626-62-0,LLK, C,8.91,PE,"Cyclohexane, iodo-","Boschi and Salahub, 1974"
 638-45-9,LL, C,9.13,EST,"Hexane, 1-iodo-","Luo and Pacey, 1992"
 36087-62-4,, C,8.1 ¡À 0.1,EI,"Manganese, tricarbonylbis(phosphorus trifluoride)(trimethylsilyl)-","Saalfeld, McDowell, et al., 1973"
 25444-93-3, , C,7.51,PE,"2(3H)-Oxazolethione,3,4,5-trimethyl-","Guimon, Arbelot, et al., 1975"
 33209-85-7,Vertical value; , C,9.4,PE,"1,2,3-Triazine, 4,5,6-trimethyl-","Gleiter, Spanget-Larsen, et al., 1983"
 55649-71-3, , C,8.3,PE,"2-Butenoic acid, 2-(acetylamino)-","Ajo, Casarin, et al., 1984"
 66943-92-8,Vertical value, C,8.41,PE,"4-Amino-1,6-dimethyl-2-hydroxypyrimidine","Yu, Peng, et al., 1978"
 6220-49-1, , C,9.3 ¡À 0.1,EI,"2(1H)Pyrimidinone,4-amino-1,N-dimethyl-","Verkin, Sukodub, et al., 1976"
 17634-60-5,Vertical value, C,8.5,PE,"2(1H)-Pyrimidinone,4-amino-1,5-dimethyl-","Yu, Peng, et al., 1978"
 358-43-0,Vertical value, C,10.1,PE,"Silane, triethylfluoro-","Roberge, Sandorfy, et al., 1978"
 81640-22-4,Vertical value, C,8.8,PE,"2-Azabicyclo[2.2.1]hept-5-ene, 2-hydroxy-","Schmidt, Ballschmidt, et al., 1983"
 3746-01-8,Vertical value, C,8.51,PE,trivinylphosphine,"Weiner and Lattman, 1978"
 24108-36-9,Vertical value; , C,8.84,PE,"1,2,4-Triazine, 3,5,6-trimethyl-","Gleiter, Kobayashi, et al., 1977"
 77379-00-1,LBLHLM, C,9.5,PE,"Bicyclo[2.1.1] hexane, 1-bromo-","Della, Abeywickrema, et al., 1984"
 625-84-3,Vertical value; , C,7.69,PE,"1H-Pyrrole, 2,5-dimethyl-","Flitsch, Peeters, et al., 1978"
 625-82-1,RDSH, C,7.54 ¡À 0.02,PI,"1H-Pyrrole, 2,4-dimethyl-","Potapov and Yuzhakova, 1970"
 21364-38-5,Vertical value, C,7.45 ¡À 0.03,PE,"2(3H)-Thiazolethione,3,4,5-trimethyl-","Guimon, Pfister-Guillouzo, et al., 1974"
 55590-24-4, , C,8.3,PE,7-Azanorbornene,"Altenbach, Constant, et al., 1991"
 2206-24-8,RDSH, C,7.7,EI,"But-1-yne-3-ene, 4-dimethylamino-","Plotnikov, Bogolyubov, et al., 1969"
 78535-39-4, , C,8.9,PE,"6,7-Dioxabicyclo[3.2.1]octane, 8-bromo-","Gleiter, Dobler, et al., 1984"
 6671-85-8,Vertical value, C,8.6,PE,2-Azabicyclo[2.2.1]hept-5-ene,"Schmidt, Ballschmidt, et al., 1983"
 33666-44-3,Vertical value, C,7.39,PE,"Pyridine,1,4-dihydro-1-methyl-","Dolby, Hanson, et al., 1976"
 1188-13-2,, C,10.8 ¡À 0.1,EI,"Gallium, triethenyl-","Glockling and Strafford, 1971"
 1551-06-0,LLK, C,7.97 ¡À 0.05,EI,"1H-Pyrrole, 2-ethyl-","Linda, Marino, et al., 1971"
 7493-04-1,RDSH, C,7.54,EI,3-Cyclohexenyl radical,"Pignataro, Cassuto, et al., 1967"
 15650-80-3,, C,7.54,EI,4-Cyclohexenyl radical,"Pignataro, Cassuto, et al., 1967"
 77376-07-9,Vertical value; , C,9.05,PE,"1-Butyne, 3,3-dimethyl-1-phosphinyl-","Cabelli, Cowley, et al., 1981"
 617-85-6,RDSH, C,13.0 ¡À 0.3,EI,"Stibine, triethyl-","Bogolyubov, Grishin, et al., 1969"
 41821-91-4,LLK, C,8.7 ¡À 0.1,PE,"1,3,2-Dioxaphosphorinane,2-methoxy-4,6-dimethyl-(2¦Â,4¦Á,6¦Á)-","Hodges, Houle, et al., 1980"
 682-30-4, , C,9.96,PE,Diethyl vinylphosphonate,"Zverev and Villem, 1980"
 7735-82-2,LLK, C,8.3 ¡À 0.1,PE,"1,3,2-Dioxaphosphorinane,2-methoxy-4,6-dimethyl-(2¦Á,4¦Á,6¦Á)-","Hodges, Houle, et al., 1980"
 544-10-5,, C,10.31,EST,"Hexane, 1-chloro-","Luo and Pacey, 1992"
 17774-09-3,LL, C,9.5 ¡À 0.2,PI,n-Hexylmercuric chloride,"Nekrasov, Zagorevskii, et al., 1992"
 10192-55-9,Vertical value, C,9.40 ¡À 0.05,PE,Cyclohexyl mercuric bromide,"Baidin, Timoshenko, et al., 1985"
 108-85-0,LLK, C,9.85 ¡À 0.01,PI,"Cyclohexane, bromo-","Sergeev, Akopyan, et al., 1973"
 111073-55-3,Vertical value, C,8.87,PE,"1,3,5-Dioxaphosphorinane, 2,2,5-trimethyl-","Zverev, Vakar, et al., 1986"
 3170-58-9,RDSH, C,7.66 ¡À 0.05,EI,Cyclohexyl radical,"Pottie, Harrison, et al., 1961"
 2493-44-9,, C,7.38,EI,2-Hexyl radical,"Lossing and Maccoll, 1976"
 21058-26-4,, C,6.82,EI,2-Methyl-2-pentyl radical,"Lossing and Maccoll, 1976"
 56348-00-6,Vertical value, C,10.6,PE,"Ethanamine, N,N-diethyl-, compound with bromine(1:1)","Utsunomiya, Kobayashi, et al., 1976"
 2679-29-0,LLK, C,7.92 ¡À 0.06,EI,1-Hexyl radical,"Lossing and Maccoll, 1976"
 78-40-0,LLK, C,10,PE,Triethyl phosphate,"Chattorpadhyay, Findley, et al., 1981"
 4885-47-6,Vertical value, C,8.65,PE,"Phosphinothioic acid, diethyl-, s-ethyl ester","Zverev and Villem, 1980"
 2651-89-0,Vertical value, C,8.45,PE,"o,o',o''-Triethyl selenophosphate","Zverev, Villem, et al., 1981"
 122-52-1,LLK, C,8.2,PE,Triethyl phosphite,"Zverev, Villem, et al., 1981"
 1186-09-0, , C,8.63,PE,"Phosphorothioic acid, O,O,S-triethyl ester","Zverev and Villem, 1980"
 111-25-1,, C,9.91,EST,"Hexane, 1-bromo-","Luo and Pacey, 1992"
 126-68-1, , C,8.49 ¡À 0.02,PE,"O,O,O-Triethyl thiophosphate","Vilesov, Lopatin, et al., 1974"
 108-91-8,LLK, C,8.4,PE,Cyclohexylamine,"Aue and Bowers, 1979"
 626-56-2,LBLHLM, C,8.03 ¡À 0.05,PE,"Piperidine, 3-methyl-","Rozeboom and Houk, 1982"
 97812-31-2,Vertical value, C,9,PE,"Propionitrile, 3-trimethylhydrazino-","Nelsen, Kessel, et al., 1980"
 1611-12-7,LLK, C,8.7,PE,"Ethanamine, N-butylidene-","Aue and Bowers, 1979"
 6906-32-7,Vertical value; , C,8.15,PE,"Isobutenyl amine, n,n-dimethyl-","Muller, Previdoli, et al., 1981"
 626-58-4,LBLHLM, C,8.06 ¡À 0.05,PE,"Piperidine, 4-methyl-","Rozeboom and Houk, 1982"
 685-91-6,RDSH, C,8.60 ¡À 0.02,PI,"Acetamide, N,N-diethyl-","Watanabe, Nakayama, et al., 1962"
 73-32-5,LLK, C,8.66,PE,L-Isoleucine,"Klasinc, 1976"
 61-90-5,LLK, C,8.51,PE,Leucine,"Klasinc, 1976"
 283-60-3,, C,~10.1,PE,Silatrane,"Cradock, Ebsworth, et al., 1975"
 327-57-1,LLK, C,8.52,PE,L-Norleucine,"Klasinc, 1976"
 6982-39-4,Vertical value; , C,9.49,PE,trans-2-Aminocyclohexanol,"Brown, 1976"
 111-49-9,RDSH, C,8.5,EI,Hexamethylenimine,"Kiser and Gallegos, 1962"
 626-67-5,LBLHLM, C,7.80 ¡À 0.05,PE,"Piperidine, 1-methyl-","Rozeboom and Houk, 1982"
 109-05-7,LBLHLM, C,8.04 ¡À 0.05,PE,2-Methylpiperidine,"Rozeboom and Houk, 1982"
 2763-77-1,, C,8.84,PI,N-Isopropyldimethyloxaziridine,"Michelsen, Giugliano, et al., 1985"
 931-15-7,Vertical value, C,9.59,PE,"Cyclohexanol, 2-amino-, cis-","Brown, 1976"
 1743-56-2,LLK, C,8.7,PE,isobutylidene(ethyl)amine,"Vocelle, Dargelos, et al., 1977"
 3332-08-9,, C,8.4 ¡À 0.2,EI,"2-Propanamine, N-(1-methylethylidene)-","Leduc and Rousseau, 1974"
 28916-23-6,LLK, C,8.5 ¡À 0.2,EI,Isobutyraldehyde ethylimine,"Leduc and Rousseau, 1974"
 14548-12-0,Vertical value; , C,7.57,PE,"1,1-Dimethylamino-1-butene","Muller, Previdoli, et al., 1981"
 7707-70-2,LLK, C,8.6 ¡À 0.2,EI,4-Aza-3-heptene,"Leduc and Rousseau, 1974"
 22023-64-9,LLK, C,8.3 ¡À 0.2,EI,Acetone propylimine,"Leduc and Rousseau, 1974"
 30417-65-3,Vertical value, C,6.2,PE,"Phosphorane, allylidenetrimethyl-","Starzewski and Bock, 1976"
 7319-05-3,Vertical value, C,8.31 ¡À 0.10,PE,Tris(dimethylamino)phosphine-borane,"Cowley, Lattman, et al., 1982"
 685-31-4,Vertical value, C,7.8,PE,"p-Ethyl-N,N,N',N'-tetramethylphosphonous diamide","Zverev, Bazhanova, et al., 1991"
 1146-65-2,LL, C,8.12 ¡À 0.02,TRPI,Naphthalene-D8,"Gotkis, Oleinikova, et al., 1993"
 3402-24-2,Vertical value, C,7.72,PE,"Phosphorodiamidous acid, N,N,N',N'-tetramethyl-, ethyl ester","Worley, Hargis, et al., 1982"
 18182-40-6,LLK, C,7.61 ¡À 0.03,PI,(CH3)2NCH2Si(CH3)3,"Loguinov, Takhistov, et al., 1981"
 13014-85-2,Vertical value, C,8.46,PE,"Ethylamine, N-[(trimethylsilyl)methyl]-","Bock, Kaim, et al., 1979"
 1074-91-5,, C,9.50 ¡À 0.02,PE,"Benzene, 1-bromo-2,3,4,5-tetrafluoro-","Mohraz, Maier, et al., 1980"
 1559-88-2,, C,9.45 ¡À 0.02,PE,"1-Bromo-2,3,5,6-tetrafluorobenzene","Mohraz, Maier, et al., 1980"
 1559-86-0,, C,9.46 ¡À 0.02,PE,"1-Bromo-2,3,4,6-tetrafluorobenzene","Mohraz, Maier, et al., 1980"
 53255-85-9,Vertical value, C,8.28,PE,"Thieno[2,3-b]thiophene,2,3,5-tribromo-","Coustale, Guimon, et al., 1976"
 53255-84-8,Vertical value, C,8.35,PE,"Thieno[2,3-b]thiophene,2,3,4-tribromo-","Coustale, Guimon, et al., 1976"
 53255-86-0,Vertical value, C,8.39,PE,"Thieno[2,3-b]thiophene,2,3,4,5-tetrabromo-","Coustale, Guimon, et al., 1976"
 6733-01-3,LLK, C,10.4 ¡À 0.1,EI,"Bicyclo[2.2.0]hexa-2,5-diene,1,2,3,4,5,6-hexafluoro-","Praet, Hubin-Franskin, et al., 1977"
 392-56-3,LLK, C,9.8,PE,"Benzene, hexafluoro-","Maier and Thommen, 1981"
 10524-09-1,LLK, C,11.5 ¡À 0.1,EI,CF3C¡ÔCC¡ÔCCF3,"Praet, Hubin-Franskin, et al., 1977"
 827-15-6,LLK, C,9.54,PE,"Benzene, pentafluoroiodo-","Trudell and Price, 1979"
 2167-31-9,Vertical value, C,11.85 ¡À 0.05,PE,"2-Butenedinitrile, 2,3-bis(trifluoromethyl)-, (E)-","Houk and Munchausen, 1976"
 488-48-2,, C,9.59,PE,"Tetrabromo-1,4-benzoquinone","Sato, Seki, et al., 1981"
 13601-14-4,LLK, C,8.8,PE,"Manganese, pentacarbonyl(trifluoromethyl)-","Lichtenberger and Fenski, 1974"
 1423-15-0,Vertical value, C,9.86,PE,"Azide, pentafluorophenyl-","Furin, Zibarev, et al., 1989"
 1423-13-8,Vertical value, C,9.53,PE,pentafluoronitrosobenzene,"Furin, Zibarev, et al., 1989"
 344-03-6,, C,9.42 ¡À 0.02,PE,"Benzene, 1,4-dibromo-2,3,5,6-tetrafluoro-","Mohraz, Maier, et al., 1980"
 27516-63-8,, C,9.45 ¡À 0.02,PE,"Benzene,1,3-dibromo-2,4,5,6-tetrafluoro-","Mohraz, Maier, et al., 1980"
 827-08-7,, C,9.50 ¡À 0.02,PE,"Benzene, 1,2-dibromo-3,4,5,6-tetrafluoro-","Mohraz, Maier, et al., 1980"
 880-78-4,Vertical value; , C,10.66,PE,"Benzene, pentafluoronitro-","Furin, Zibarev, et al., 1989"
 2375-86-2,Vertical value, C,10.97,PE,"1,2-Diphosphete,1,2-dihydro-1,2,3,4-tetrakis(trifluoromethyl)-","Cowley, Dewar, et al., 1974"
 355-68-0,, C,13.2,EI,"Cyclohexane, dodecafluoro-","Majer and Patrick, 1962"
 360-57-6,Vertical value, C,12.61,PE,"1,1,1,4,4,4-Hexafluoro-2,3-bis(trifluoromethyl)but-2-ene","Robin, Taylor, et al., 1973"
 26393-26-0,Vertical value, C,7.95,PE,"1,3-Dithiole,2-(4,5-di-trifluoromethyl-1,3-dithiol-2-ylidene","Gleiter, Kobayashi, et al., 1975"
 118-74-1,LLK, C,8.98,PE,"Benzene, hexachloro-","Sato, Seki, et al., 1981"
 313-72-4,LBLHLM, C,8.85,PE,Perfluoronaphthalene,"Hohlneicher, Distler, et al., 1984"
 88635-83-0,, C,9.25 ¡À 0.03,PI,"1,2-Dioxetane, 3,3,4,4-tetra(methyl-d3)-","Trott, Blais, et al., 1978"
 63356-87-6,Vertical value, C,8.03,PE,"Chromium, (carbonoselenoyl)pentacarbonyl-","English, Plowman, et al., 1979"
 50358-90-2, , C,8.31 ¡À 0.03,EI,"Chromium, (carbonothioyl)pentacarbonyl-","Michels, Flesch, et al., 1980"
 118-75-2,LLK, C,9.74,PE,"p-Benzoquinone, 2,3,5,6-tetrachloro-","Sato, Seki, et al., 1981"
 344-07-0,LLK, C,9.72 ¡À 0.02,PE,"Benzene, chloropentafluoro-","Mohraz, Maier, et al., 1980"
 1735-17-7,LBLHLM, C,9.90 ¡À 0.10,EQ,Cyclohexane-d12,"Lias, 1982"
 13280-72-3,, C,10.7 ¡À 0.2,EI,"1,3-Cyclohexadien-5-yne, 1,2,3,4-tetrachloro-","Grutzmacher and Hubner, 1969"
 319-88-0,LBLHLM, C,9.3,PE,"Benzene, 1,3,5-trichloro-2,4,6-trifluoro-","Maier and Thommen, 1982"
 13007-92-6,LBLHLM, C,8.2,PE,Chromium hexacarbonyl,"Cooper, Green, et al., 1987"
 14243-23-3,Vertical value, C,7.9,PE,"Iron, hexacarbonyl[¦Ç-(dithio-s,s':s,s')]di-, (fe-fe)-","Van Dam, Louwen, et al., 1980"
 21666-38-6,, C,10.18,EQ,Hexane-d14,"Lias, Ausloos, et al., 1976"
 1076-43-3,, C,9.25 ¡À 0.01,PI,Benzene-D6,"Dibeler and Reese, 1964"
 12595-84-5,LL, C,9.7 ¡À 0.2,PE,Carbon hexamer,"Ramathan, Zimmerman, et al., 1993"
 15525-07-2, , C,7,PE,"Manganese, decacarbonyl(mercury)di-, (2Hg-Mn)","Louwen, Andrea, et al., 1982"
 19439-14-6,LBLHLM, C,8,PE,Cobalt [¦Ì,"Granozzi, Tondello, et al., 1982"