CAS,Comment,Formula,IE,Method,Name,Refer
 7718-54-9,LLK, Cl,10.8,PE,nickel dichloride,"Lee, Potts, et al., 1980"
 10476-85-4,LBLHLM, Cl,9.8,S,strontium chloride,"Emons, Kiessling, et al., 1982"
 12265-61-1,Vertical value; , Cl,9.3,PE,Dirubidium dichloride,"Potts and Price, 1977"
 4109-96-0,Vertical value, Cl,11.7,PE,Dichlorosilane,"Chadwick, Cornford, et al., 1972"
 7786-30-3,RDSH, Cl,11.58 ¡À 0.10,EI,magnesium chloride,"Hildenbrand, 1970"
 12258-97-8,Vertical value; , Cl,9.6,PE,Dipotassium dichloride,"Potts and Price, 1977"
 12258-95-6,Vertical value; , Cl,9.15,PE,Dicesium dichloride,"Potts and Price, 1977"
 7782-50-5,LL, Cl,11.481 ¡À 0.003,TE,Chlorine,"Yencha, Hopkirk, et al., 1995"
 69569-03-5,, AgCl,10.3 ¡À 0.3,EI,Dicopper silver trichloride,"Bernauer, Busse, et al., 1979"
 7775-41-9,LL, AgF,11,EI,silver fluoride,"Hildenbrand and Lau, 1991"
 13967-01-6,LL, AgH,9.23 ¡À 0.12,END/DER,Silver monohydride,"Chen and Armentrout, 1995"
 75763-82-5,, Ag,10.3 ¡À 0.5,EI,Disilver dichloride,"Wagner and Grimley, 1972"
 12187-06-3,LL, Ag,7.6557,EVAL,Silver dimer,"Winstead, Paukstis, et al., 1995"
 64475-45-2,LL, Ag,6.65,EI,Silver tetramer,"Jackschath, Rabin, et al., 1992"
 12323-20-5,, BiSb,7.8 ¡À 0.3,EI,Bismuth triantimonide,"Kohl, Prusaczyk, et al., 1967"
 7787-58-8, , BiBr,9.7,PE,bismuth tribromide,"Novak and Potts, 1983"
 83527-55-3,, As,9.0 ¡À 0.3,EI,Tetraarsenic pentaoxide,"Brittain, Lau, et al., 1982"
 12255-33-3,LLK, AsP,10.5 ¡À 0.6,EI,Arsenic monophosphide,"Gingerich, Cocke, et al., 1974"
 83527-54-2,, As,8.8 ¡À 0.3,EI,Tetraarsenic trioxide,"Brittain, Lau, et al., 1982"
 12512-13-9,Vertical value, As,9.01,PE,Tetraarsenic trisulfide,"Cannington and Whitfield, 1977"
 12511-95-4,, AsP,10.3 ¡À 0.3,EI,Arsenic triphosphide,"Gutbier, 1961"
 7784-34-1,LBLHLM, AsCl,11.2 ¡À 0.1,EI,Arsenic trichloride,"Ozgen, 1983"
 12279-90-2,LBLHLM, As,8.7 ¡À 0.3,EI,Tetraarsenic tetrasulfide,"Lau, Brittain, et al., 1982"
 12505-67-8,LBLHLM, As,10.3 ¡À 0.3,EI,"2,4,6,8,9,10-Hexaoxa-1,3,5,7-tetraarsatricyclo[3.3.1.1","Brittain, Lau, et al., 1982"
 14525-25-8,LBLHLM, AsClO,11.1,EI,Arsenic monoxide monochloride,"Binnewies, 1983"
 12323-19-2,, BiSb,8.0 ¡À 0.3,EI,Bismuth monoantimonide,"Kohl, Prusaczyk, et al., 1967"
 87198-15-0,, AsCl,10.7,PE,Arsenic tetrachloride fluoride,"Elbel, Runger, et al., 1986"
 12187-08-5,LBLHLM, As,9.3 ¡À 0.3,EI,Arsenic tetramer,"Hirayama, Straw, et al., 1985"
 38782-42-2,, AgNa,7.0 ¡À 1.5,EI,"Silver, compound with sodium(1:1)","Piacente and Gingerich, 1977"
 12002-74-3,, AgHo,5.7 ¡À 0.6,EI,"Holmium, compound with silver (1:1)","Cocke and Gingerich, 1971"
 12249-50-2,, AgEu,6.1 ¡À 0.5,EI,"Europium, compound with silver(1:1)","Kordis and Gingerich, 1973"
 12379-67-8,LLK, AgAl,7.8 ¡À 0.5,EI,"Aluminum, compound with silver (1:1)","Cuthill, Fabian, et al., 1973"
 12512-11-7,, As,10.0 ¡À 0.3,EI,Triarsenic phosphide,"Gutbier, 1961"
 83527-53-1,, As,¡Ü9.0,EI,Triarsenic tetraoxide,"Brittain, Lau, et al., 1982"
 7784-36-3,LBLHLM, AsF,15,PE,pentafluoroarsorane,"Runger, 1985"
 7784-35-2,LLK, AsF,12.3 ¡À 0.05,EI,trifluoroarsine,"Pabst, Sharpe, et al., 1980"
 53098-12-7,Vertical value, AsF,10.90 ¡À 0.05,PE,"Arsine, (trifluorosilyl)-","Demuth, 1977"
 7440-22-4,LL, Ag,7.57624,EVAL,silver,"Lide, 1992"
 15110-34-6,Vertical value, AsH,9.3 ¡À 0.1,PE,"Arsine, trisilyl-","Cradock, Ebsworth, et al., 1972"
 15455-99-9,, AsH,10.1 ¡À 0.1,EI,"Arsine, silyl-","Saalfeld and McDowell, 1967"
 12628-08-9,LL, AsH,9.641 ¡À 0.008,PI,Arsenic monohydride,"Berkowitz, 1988"
 7784-42-1,LLK, AsH,9.89,PE,Arsine,"Potts and Price, 1972"
 12005-99-1,LBLHLM, AsO,9.0 ¡À 0.3,EI,Arsenic monoxide,"Brittain, Lau, et al., 1982"
 12255-12-8,, AsO,10.8 ¡À 0.3,EI,Arsenic dioxide,"Brittain, Lau, et al., 1982"
 7787-61-3,LBLHLM, BiF,12.5,PE,bismuth trifluoride,"Novak and Potts, 1983"
 7791-08-4,LBLHLM, ClOSb,10.7,EI,antimony chloride oxide,"Binnewies, 1983"
 21295-50-1,LBLHLM, ClOP,11.5,EI,Phosphorus monochloride monoxide,"Binnewies, 1983"
 12591-02-5,Vertical value, ClO,11.9,PE,Phosphenic chloride,"Bock, Kremer, et al., 1992"
 10049-04-4,LL, ClO,10.33 ¡À 0.02,PI,Chlorine dioxide,"Flesch, Ruhl, et al., 1993"
 13932-10-0,LL, ClO,11.4 ¡À 0.10,EI,Chlorine trioxide,"Alekseev, Zyubina, et al., 1989"
 14989-30-1,LL, ClO,10.885 ¡À 0.016,PI,Monochlorine monoxide,"Thorn, Stief, et al., 1996"
 62436-46-8,Vertical value, Cl,9.5,PE,"Silacyclopentane, decachloro-","Stuger and Janoschek, 1992"
 13596-41-3,, Cl,9.83 ¡À 0.05,EI,Cyclo-pentakis(dichlorophosphonitrile),"Brion, Oldfield, et al., 1966"
 12323-26-1,, Bi,7.2 ¡À 0.3,EI,Tribismuth monoantimonide,"Kohl, Prusaczyk, et al., 1967"
 15978-96-8,, BiF,8.05 ¡À 0.05,PI,Bismuth difluoride,"Yoo, Ruscic, et al., 1992"
 12595-63-0,LLK, Bi,8.8 ¡À 0.5,EI,Bismuth trimer,"Wagner and Grimley, 1974"
 7787-64-6, , BiI,8.9,PE,bismuth triiodide,"Novak and Potts, 1983"
 12006-09-6, , AsTl,9. ¡À 1.,EI,thallium arsenide,"Piacente and Malaspina, 1972"
 7784-33-0, , AsBr,8.7 ¡À 0.05,EI,arsenic tribromide,"Pabst, Sharpe, et al., 1980"
 7784-45-4, , AsI,9.0 ¡À 0.5,EI,arsenic triiodide,"Alikhanyan, Steblevskii, et al., 1980"
 7440-38-2,LL, As,9.8152,EVAL,arsenic,"Lide, 1992"
 25081-01-0, , ClNOS,10.9,PE,"Thionylimide, chloro-","Nachbaur and Prossegger, 1985"
 2696-92-6,LBLHLM, ClNO,12.7,EI,Nitrosyl chloride,"Binnewies, 1983"
 12190-75-9,, ClN,9.69 ¡À 0.02,PE,Nitrogen monochloride,"Butcher, Dyke, et al., 1988"
 13444-90-1,, ClNO,11.84,PE,Nitryl chloride,"Frost, Lee, et al., 1975"
 14545-72-3, , ClNO,11.04,PE,Chlorine nitrate,"Wang, Li, et al., 1996"
 101197-70-0,, Cl,9.5,EI,Ditunsgten hexachloride,"Rinke and Schafer, 1967"
 13283-01-7,, Cl,9.5,EI,tungsten hexachloride,"Preiss, 1972"
 17178-58-4, , ClNS,10.61 ¡À 0.01,PE,Thiazyl chloride,"DeKock, Shehfeh, et al., 1976"
 13973-88-1,LLK, ClN,10.20 ¡À 0.01,PE,Chlorine azide,"Frost, MacDonald, et al., 1980"
 13465-77-5,LLK, Cl,11.0 ¡À 0.3,EI,Hexachlorodisilane,"Ihle, Wu, et al., 1978"
 940-71-6,LLK, Cl,10.05 ¡À 0.03,EI,"1,3,5,2,4,6-Triazatriphosphorine, 2,2,4,4,6,6-hexachloro-2,2,4,4,6,6-hexahydro-","Clare and Sowerby, 1981"
 15654-66-7,Vertical value; , Cl,11.81,PE,Digallium hexachloride,"Lappert, Pedley, et al., 1976"
 7787-60-2, , BiCl,11.2 ¡À 0.1,EI,bismuth trichloride,"Ozgen, 1983"
 26257-16-9,, BiTl,7.5 ¡À 0.4,EI,"Bismuth, compound with thallium","DeMaria, Malaspina, et al., 1972"
 12010-43-4,, BiGa,7. ¡À 1.,EI,"Bismuth, compound with gallium","Piacente and Desideri, 1972"
 12010-57-0,RDSH, BiTe,8.4 ¡À 0.5,EI,"Bismuth, compound with tellurium (1:1)","Uy and Drowart, 1969"
 12048-34-9,RDSH, BiS,8.7 ¡À 0.5,EI,Bismuth monosulfide,"Uy and Drowart, 1969"
 12048-27-0,, BiLi,6.0 ¡À 0.5,EI,"bismuth, compound with lithium (1:1)","Neubert, Ihle, et al., 1980"
 7440-69-9,LL, Bi,7.289,EVAL,bismuth,"Lide, 1992"
 95860-63-2,, ClCsRb,3.5 ¡À 0.2,PI,Cesium rubidium monochloride,"Kappes, Radi, et al., 1985"
 13497-91-1,, Cl,9.4 ¡À 0.2,EI,Disphosphorus tetrachloride,"Sandoval, Moser, et al., 1963"
 10038-98-9,LLK, Cl,11.68 ¡À 0.05,EI,Germanium tetrachloride,"Tamas, Czira, et al., 1972"
 87331-16-6,LBLHLM, ClCs,3.4 ¡À 0.2,PI,Dicesium monochloride,"Kappes, Radi, et al., 1985"
 10026-04-7,LLK, Cl,11.8,PE,Silicon tetrachloride,"Potzinger, Ritter, et al., 1975"
 7550-45-0,LBLHLM, Cl,11.5,PE,Titanium tetrachloride,"Bancroft, Pellach, et al., 1982"
 7646-78-8,LBLHLM, Cl,11.5,PE,Tin(IV) chloride,"Bancroft, Pellach, et al., 1982"
 12306-28-4,, Cl,7.8 ¡À 1.0,EI,Ditin tetrachloride,"O'Brien and Mucklejohn, 1987"
 13637-65-5,Vertical value, ClGeH,11.30 ¡À 0.02,PE,Chlorogermane,"Cradock and Whiteford, 1971"
 95860-64-3,LBLHLM, ClCsNa,3.9 ¡À 0.1,PI,Sodium cesium monochloride,"Kappes, Radi, et al., 1985"
 7647-17-8,LBLHLM, ClCs,7.4,PE,caesium chloride,"Benson, Novak, et al., 1987"
 14989-29-8,RDSH, ClMg,7.49 ¡À 0.10,EI,Magnesium chloride,"Hildenbrand, 1970"
 13465-10-6,LL, ClIn,8.3 ¡À 0.2,EI,indium chloride,"Defoort, Chatillon, et al., 1988"
 13499-05-3, , Cl,11.7,PE,hafnium tetrachloride,"Egdell and Orchard, 1978"
 25251-04-1,LLK, Cl,10.48 ¡À 0.03,EI,"1,3,5,2,4,6-Triazatriphosphorine 2,2,4,6-tetrachloro-4,6-difluoro-2,2,4,4,6,6-hexahydro-","Clare and Sowerby, 1981"
 23444-30-6,, Cl,10.5 ¡À 1.0,EI,Iron chloride,"Schoonmaker and Porter, 1958"
 10026-11-6, , Cl,11.2,PE,zirconium tetrachloride,"Egdell and Orchard, 1978"
 13470-13-8,RDSH, Cl,8,EI,Tungsten tetrachloride,"Rinke and Schafer, 1967"
 7632-51-1,LLK, Cl,10.5 ¡À 0.5,EI,vanadium tetrachloride,"Rat'kovskii, Novikova, et al., 1976"
 10026-10-5,LLK, Cl,9.18,PE,uranium tetrachloride,"Dyke, Fayad, et al., 1980"
 10026-08-1,LL, Cl,11.5 ¡À 0.3,EI,thorium tetrachloride,"Lau and Hildenbrand, 1990"
 11094-66-9,, Cl,10.3 ¡À 0.3,EI,Diindium tetrachloride,"Defoort, Chatillon, et al., 1988"
 13320-71-3,LBLHLM, Cl,10.5 ¡À 0.1,EI,molybdenum tetrachloride,"Makarov, Verkhoturov, et al., 1983"
 11093-67-7,, Cl,9.3,EI,Tetracopper tetrachloride,"Bloom and Williams, 1981"
 2950-45-0,, Cl,9.80 ¡À 0.05,EI,"1,3,5,7,2,4,6,8-Tetrazatetraphosphocine, 2,2,4,4,6,6,8,8-octachloro-2,2,4,4,6,6,8,8-octahydro-","Brion, Oldfield, et al., 1966"
 7791-12-0,LBLHLM, ClTl,9.7,PE,thallium chloride,"Bancroft and Bristow, 1983"
 73023-80-0,Vertical value, Cl,8.85,PE,"Silacyclobutane, octachloro-","Stuger and Janoschek, 1992"
 12285-39-1,, Cl,9.3,EI,Tritunsten nonachloride,"Rinke and Schafer, 1967"
 14973-59-2,LLK, Cl,8.7,PE,Trirhenium nonachloride,"Bursten, Cotton, et al., 1980"
 7790-99-0,LLK, ClI,10.08,EVAL,Iodine monochloride,"Huber and Herzberg, 1979"
 25251-05-2,LLK, Cl,10.74 ¡À 0.03,EI,"1,3,5,2,4,6-Triazatriphosphorine,2,4,6-trichloro-2,4,6-trifluoro-2,2,4,4,6,6-hexahydro-","Clare and Sowerby, 1981"
 10025-85-1,LLK, Cl,10.1 ¡À 0.1,PE,nitrogen trichloride,"Colbourne, Frost, et al., 1978"
 95860-66-5,LBLHLM, ClKNa,4.0 ¡À 0.1,PI,Potassium sodium monochloride,"Kappes, Radi, et al., 1985"
 95386-61-1,LL, ClK,3.4 ¡À 0.1,EI,Dipotassium monochloride,"Kudin, Burdukovskaya, et al., 1990"
 7447-40-7,LLK, ClK,10.5,EI,potassium chloride,"Itoh, Sasamoto, et al., 1981"
 10361-82-7,Vertical value, Cl,11.25 ¡À 0.05,PE,samarium (III) chloride hexahydrate,"Lee, Potts, et al., 1982"
 15605-27-3,Vertical value, ClMnO,11.98 ¡À 0.05,PE,Trioxo manganese chloride,"Diemann, Varetti, et al., 1977"
 7447-41-8,LLK, ClLi,10,EI,lithium chloride,"Bloom and Williams, 1981"
 84008-89-9,, ClNa,4.1 ¡À 0.1,PI,Disodium monochloride,"Kappes, Radi, et al., 1985"
 10361-91-8,Vertical value, Cl,11.61 ¡À 0.05,PE,ytterbium trichloride,"Lee, Potts, et al., 1982"
 7791-11-9,LBLHLM, ClRb,8.2,EI,rubidium chloride,"Williams, 1982"
 7647-14-5,LBLHLM, ClNa,9.2,EI,sodium chloride,"Williams, 1982"
 95860-65-4,, ClNaRb,4.0 ¡À 0.1,PI,Rubidium sodium monochloride,"Kappes, Radi, et al., 1985"
 27581-25-5,Vertical value, ClPS,10.3,PE,Phosphenothious chloride,"Binnewies, Solouki, et al., 1984"
 67318-23-4,Vertical value, ClPS,9.8,PE,Phosphenodithioic chloride,"Bock, Kremer, et al., 1992"
 7719-12-2,LL, Cl,9.90 ¡À 0.01,PIPECO,Phosphorus trichloride,"Ruede, Troxler, et al., 1993"
 10025-78-2,Vertical value; , Cl,11.94,PE,Trichlorosilane,"Nicholson and Rademacher, 1974"
 3982-91-0, , Cl,9.71 ¡À 0.03,PE,Thiophosphoryl chloride,"Vilesov, Lopatin, et al., 1974"
 10361-92-9,, Cl,12.8 ¡À 0.5,EI,yttrium chloride hexahydrate,"McKinley, 1965"
 10024-93-8,LLK, Cl,¡Ü11.4,EI,neodymium trichloride,"Ciach, Nicholson, et al., 1973"
 10138-52-0,Vertical value; , Cl,11.36 ¡À 0.04,EI,gadolinium trichloride,"Lee, Potts, et al., 1982"
 10361-79-2,Vertical value, Cl,11.43 ¡À 0.02,PE,praseodymium trichloride,"Lee, Potts, et al., 1982"
 15218-57-2,, Cl,9.3 ¡À 0.2,EI,Potassium trichloroplumbate,"Bloom and Hastie, 1968"
 55799-23-0,, Cl,9.8,EI,Lithium dicopper trichloride,"Bloom and Williams, 1981"
 79950-14-4,, Cl,10.7,EI,Potassium dicopper trichloride,"Bloom and Williams, 1981"
 11093-65-5,LBLHLM, Cl,9.5,EI,Tricopper trichloride,"Williams, 1982"
 82868-22-2,, Cl,9.63 ¡À 0.02,PE,Sulfur trichloride monoxide,"Bunzli, Frost, et al., 1973"
 7727-18-6,LBLHLM, Cl,11.9 ¡À 0.3,EI,vanadium trichloride oxide,"Mason and Behrens, 1982"
 10025-87-3,LLK, Cl,11.36 ¡À 0.02,PE,Phosphorus oxychloride,"Bunzli, Frost, et al., 1973"
 10025-91-9,LBLHLM, Cl,11.0 ¡À 0.1,EI,antimony trichloride,"Ozgen, 1983"
 15123-26-9,, Cl,6.7 ¡À 0.3,EI,Thorium trichloride,"Lau and Hildenbrand, 1990"
 13537-18-3,Vertical value, Cl,11.56 ¡À 0.06,PE,thulium trichloride,"Lee, Potts, et al., 1982"
 10042-88-3,Vertical value, Cl,11.43 ¡À 0.05,PE,terbium (III) chloride hexahydrate,"Lee, Potts, et al., 1982"
 10025-76-0,RDSH, Cl,13. ¡À 1.,EI,"europium (III) chloride, anhydrous","Hastie, Ficalora, et al., 1968"
 10026-13-8,LBLHLM, Cl,10.2,PE,phosphorus pentachloride,"Elbel, Runger, et al., 1986"
 15218-58-3,, Cl,9.2 ¡À 0.2,EI,Rubidium trichloroplumbate,"Bloom and Hastie, 1968"
 13597-20-1,Vertical value; , Cl,12.14,PE,Niobium trichloride oxide,"Elbel and tom Dieck, 1981"
 10099-58-8,LBLHLM, Cl,10.6,PE,"lanthanum chloride, anhydrous","Ruscic, Goodman, et al., 1983"
 10025-82-8,LL, Cl,13.3 ¡À 0.3,EI,indium trichloride,"Defoort, Chatillon, et al., 1988"
 10138-62-2,Vertical value, Cl,11.45 ¡À 0.07,PE,holmium trichloride,"Lee, Potts, et al., 1982"
 59217-69-5,LLK, Cl,10.17,PI,Lithium chloride,"Berkowitz, Batson, et al., 1980"
 10099-66-8,RDSH, Cl,11.5 ¡À 0.5,EI,lutetium trichloride,"Hastie, Ficalora, et al., 1968"
 10025-74-8,Vertical value, Cl,11.42 ¡À 0.06,PE,dysprosium trichloride,"Lee, Potts, et al., 1982"
 10138-41-7,Vertical value, Cl,11.54 ¡À 0.06,PE,erbium trichloride,"Lee, Potts, et al., 1982"
 13450-90-3, , Cl,11.52,PE,gallium trichloride,"Dehmer, Berkowitz, et al., 1974"
 13470-14-9,LLK, Cl,8.5,PE,Tungsten pentachloride,"Egdell and Orchard, 1978"
 7647-18-9,LLK, Cl,10.8,PE,Antimony pentachloride,"Elbel and tom Dieck, 1981"
 7721-01-9,LLK, Cl,11.08,PE,tantalum pentachloride,"Egdell and Orchard, 1978"
 13596-35-5,LLK, Cl,9.2,PE,rhenium pentachloride,"Egdell and Orchard, 1978"
 10026-12-7,LLK, Cl,10.97,PE,niobium pentachloride,"Egdell and Orchard, 1978"
 10241-05-1, , Cl,8.7,PE,molybdenum pentachloride,"Egdell and Orchard, 1978"
 11093-68-8,, Cl,9.2 ¡À 1.0,EI,Pentacopper pentachloride,"Wagner, Robert, et al., 1974"
 62436-47-9,Vertical value, Cl,9,PE,"Silacyclohexane, dodecachloro-","Stuger and Janoschek, 1992"
 2851-52-7,, Cl,9.81 ¡À 0.05,EI,Cyclo-hexakis(dichlorophosphonitrile),"Brion, Oldfield, et al., 1966"
 13827-30-0,, Cl,9.80 ¡À 0.05,EI,Cyclo-heptakis(dichlorophosphonitrile),"Brion, Oldfield, et al., 1966"
 13450-91-4, , GaI,9.4,PE,gallium triiodide,"Dehmer, Berkowitz, et al., 1974"
 69723-93-9,, ClH,7.66 ¡À 0.23,DER,Chlorosilyl radical,"Murthy and Beauchamp, 1995"
 7616-94-6,LLK, ClFO,12.945 ¡À 0.005,PE,Perchloryl fluoride,"DeKock, Lloyd, et al., 1972"
 10599-90-3,LLK, ClH,9.85 ¡À 0.02,PE,chloramide,"Colbourne, Frost, et al., 1978"
 13637-83-7,LLK, ClFO,12.41 ¡À 0.10,EI,Chloryl fluoride,"Baluev, Nikitina, et al., 1980"
 13780-57-9,LLK, ClF,12.335 ¡À 0.005,PE,sulphur chloride pentafluoride,"DeKock, Higginson, et al., 1972"
 14049-36-6,Vertical value, ClF,13.44 ¡À 0.02,PE,Chlorotrifluorosilane,"Cradock, Ebsworth, et al., 1973"
 15605-68-2,LL, GaI,9.03,PE,Gallium monoiodide,"Grabandt, Mooyman, et al., 1990"
 13637-84-8,LLK, ClFO,12.3 ¡À 0.5,EI,Sulfuryl chloride fluoride,"Sullivan and Beauchamp, 1978"
 7790-91-2,LLK, ClF,12.65 ¡À 0.05,PE,chlorine trifluoride,"DeKock, Higginson, et al., 1972"
 20281-00-9,LBLHLM, Cs,4.37,S,dicesium oxide,"Butman, Kudin, et al., 1984"
 7790-92-3,LLK, ClHO,11.12 ¡À 0.01,PE,Hypochlorous acid,"Colbourne, Frost, et al., 1978"
 13465-78-6,Vertical value, ClH,11.65,PE,chlorosilane,"Frost, Herring, et al., 1971"
 10294-54-9,, Cs,8.9 ¡À 0.5,EI,caesium sulphate,"Ficalora, Uy, et al., 1968"
 12187-84-7,, Cs,4.5 ¡À 0.3,EI,Dicesium antimonide,"Busse and Weil, 1982"
 13597-64-3,, Cs,7,EI,dicesium molybdate,"Johnson, 1975"
 12184-83-7,LBLHLM, Cs,3.7 ¡À 0.1,PI,Cesium dimer,"Kappes, Radi, et al., 1985"
 7790-89-8,LLK, ClF,12.74 ¡À 0.01,PE,chlorine fluoride,"DeKock, Higginson, et al., 1972"
 21377-80-0,, ClF,12.60 ¡À 0.05,EI,Chlorine monofluoride,"Dudin, Gorokhov, et al., 1979"
 24801-48-7,, ClF,12.77 ¡À 0.05,EI,Chlorine difluoride-,"Dudin, Gorokhov, et al., 1979"
 14335-40-1,Vertical value, ClF,12.8 ¡À 0.1,PE,Phosphorus difluoride monochloride,"Cradock and Rankin, 1972"
 7647-01-0,LBLHLM, ClH,12.79,PE,Hydrogen chloride,"Wang, Dillon, et al., 1984"
 17108-85-9, , ClGa,9.91,PE,Gallium monochloride,"Grabandt, Mooyman, et al., 1990"
 51686-35-2,, ClTh,6.2 ¡À 0.3,EI,Thorium monochloride,"Lau and Hildenbrand, 1990"
 14989-33-4,LL, ClSr,5.51 ¡À 0.06,EVAL,Strontium monochloride,"Belyaev, Gotkis, et al., 1990"
 13931-83-4,RDSH, ClNi,11.4 ¡À 0.5,EI,Nickel monochloride,"McKinley, 1964"
 34240-80-7,, ClCo,8.9 ¡À 0.5,DER,Cobalt monochloride,"Hastie and Margrave, 1968"
 7758-89-6,LLK, ClCu,10.7,EI,copper chloride,"Bloom and Williams, 1981"
 22537-15-1,LL, Cl,12.96764,EVAL,Chlorine atom,"Lide, 1992"
 7429-92-7,LL, Es,6.42,EVAL,Einsteinium,"Lide, 1992"
 12331-81-6,LBLHLM, CsK,3.9 ¡À 0.1,PI,"Cesium, compound with potassium (1:1)","Kappes and Schumacher, 1985"
 56095-61-5,RDSH, Cs,3.2 ¡À 0.1,PI,Tricesium,"Foster, Leckenby, et al., 1969"
 13587-54-7,LL, DO,13.0290 ¡À 0.0002,TE,Hydroxyl-d,"Wiedmann, Tonkyn, et al., 1992"
 12331-83-8,LBLHLM, CsRb,3.7 ¡À 0.1,PI,"Cesium, compound with rubidium (1:1)","Kappes and Schumacher, 1985"
 37308-30-8,, CsSb,4.2 ¡À 0.3,EI,Cesium diantimonide,"Busse and Weil, 1982"
 12689-99-5,, GaTe,8.3 ¡À 0.5,EI,gallium ditelluride,"Uy, Muenow, et al., 1968"
 12024-14-5,, GaTe,8.4 ¡À 0.3,EI,gallium telluride,"Uy, Muenow, et al., 1968"
 13454-81-4,, CsIO,~9.2,EI,cesium iodate,"Biggs, Gomme, et al., 1992"
 12596-25-7,LBLHLM, Hg,9.103 ¡À 0.010,PI,Mercury dimer,"Linn, Liao, et al., 1984"
 95860-62-1,, CsFNa,3.9 ¡À 0.1,PI,Cesium sodium monofluoride,"Kappes, Radi, et al., 1985"
 12018-59-6,LBLHLM, CsLi,4.1 ¡À 0.1,PI,"Cesium, compound with lithium (1:1)","Kappes and Schumacher, 1985"
 12018-60-9,, CsNa,4.05 ¡À 0.04,PI,"Cesium, compound with sodium (1:1)","Kappes and Schumacher, 1985"
 7440-46-2,LL, Cs,3.8939,EVAL,Cesium,"Lide, 1992"
 12160-72-4,, Ga,7.4 ¡À 0.3,EI,Digalllium monoselenide,"Uy, Muenow, et al., 1968"
 12259-25-5,LLK, Ga,7.7 ¡À 0.3,EI,Digallium sulfide,"Piacente, Bardi, et al., 1976"
 65762-28-9,, Ga,8.1 ¡À 0.5,EI,Digallium ditelluride,"Uy, Muenow, et al., 1968"
 12401-03-5,, Ga,7.6 ¡À 0.3,EI,Digallium monotelluride,"Uy, Muenow, et al., 1968"
 12024-20-3,, Ga,8.0 ¡À 0.5,EI,Digallium monoxide,"Shchukarev, Semenov, et al., 1969"
 14104-45-1,, DI,10.387,S,[2H]hydrogen iodide,"Eland and Berkowitz, 1977"
 13587-16-1,LLK, DLi,7.7 ¡À 0.1,EI,lithium (2H)hydride,"Ihle and Wu, 1975"
 7789-20-0,LBLHLM, D,12.6395 ¡À 0.0003,PE,Deuterium oxide,"Reutt, Wang, et al., 1986"
 13536-94-2,RDSH, D,10.2 ¡À 0.2,EI,Hydrogen sulfide-d2,"Dibeler and Rosenstock, 1963"
 13780-29-5,, D,10.2 ¡À 0.2,EI,Phosphine-d2,"Wada and Kiser, 1964"
 13780-28-4,LL, D,10.072 ¡À 0.010,PI,Ammonia-d2,"Locht, Leyh, et al., 1991"
 15117-84-7,, D,11.45 ¡À 0.01,PE,Amidogen-d2,"Dunlavey, Dyke, et al., 1980"
 40712-39-8,, D,9.61 ¡À 0.01,PE,(E)-Diazene-d2,"Frost, Lee, et al., 1976"
 14989-24-3,, D,9.61,PE,Diazene-d2,"Frost, Lee, et al., 1975"
 7782-39-0,LL, D,15.46658,EVAL,Deuterium,"Shiner, Gilligan, et al., 1993"
 12024-08-7,, GaO,9.4 ¡À 0.5,EI,Gallium monoxide,"Burns, 1966"
 12064-03-8,, GaSb,7.6 ¡À 1.0,EI,gallium antimonide,"Piacente and Balducci, 1974"
 7440-55-3,LL, Ga,5.9993,EVAL,gallium,"Lide, 1992"
 69103-84-0,LL, D,8.128 ¡À 0.001,LS,Silyl-d3 radical,"Johnson III, Tsai, et al., 1989"
 13537-03-6,, D,10.1 ¡À 0.2,EI,Phosphine-d3,"Wada and Kiser, 1964"
 12168-29-5,, D,4.3 ¡À 0.1,DER,Trideuterium oxide,"Gellene and Porter, 1984"
 13550-49-7,LL, D,10.083 ¡À 0.010,PI,(2H3)ammonia,"Locht, Leyh, et al., 1991"
 13762-18-0,, DHS,10.3 ¡À 0.2,EI,Dihydrogen sulfide-d1,"Dibeler and Rosenstock, 1963"
 13587-49-0,LL, DH,10.072 ¡À 0.010,PI,Ammonia-d1,"Locht, Leyh, et al., 1991"
 13983-20-5,LL, DH,15.44465,EVAL,deuterium hydride,"Shiner, Gilligan, et al., 1993"
 16355-69-4,RDSH, DNO,10.29 ¡À 0.14,EI,Nitrosyl hydride-d1,"Kohout and Lampe, 1966"