CAS,Comment,Formula,IE,Method,Name,Refer
 15364-55-3,LBLHLM, C,7.9,PE,9-Bromo triptycene,"Martin, Mayer, et al., 1983"
 40438-64-0,Vertical value, C,7.25,PE,"Benzenamine,4-(dicyclohexylphosphino)-N,N-dimethyl-","Goetz, Marschner, et al., 1976"
 248-96-4,, C,7.0 ¡À 0.1,EI,"5H-Naphtho[2,3-b]carbazole","Riepe and Zander, 1969"
 207-84-1,, C,6.9 ¡À 0.1,EI,"7H-Dibenzo(a,g)carbazole","Riepe and Zander, 1969"
 194-59-2,, C,7.1 ¡À 0.1,EI,"7H-Dibenzo[c,g]carbazole","Riepe and Zander, 1969"
 113035-28-2,Vertical value, C,6.8,PE,"2-Azapentalene, 1,5-di(tert-butyl)-3-piperidinyl)-","Eckert-Maksic, Gleiter, et al., 1988"
 239-64-5,, C,7.1 ¡À 0.1,EI,"13H-Dibenzo[a,i]carbazole","Riepe and Zander, 1969"
 24325-56-2,Vertical value, C,7.83,PE,"e-Diazene, bis(1-adamantyl)-","Engel, Gerth, et al., 1988"
 47180-21-2,Vertical value, C,8.22,PE,"Bis(1,7,7-trimethylbicyclo[2.2.1]hept-2-ylidene)azine","Kirste, Poppek, et al., 1984"
 14835-59-7,, C,8.5,EI,"1H-Isoindole-1,3(2H)-dione, 2-[1,1'-biphenyl]-2-yl-","Cotter and Dine-Hart, 1966"
 55728-11-5,, C,8.6 ¡À 0.1,PI,"L-Alanine,N-[N-[N-(1-oxodecyl)-L-alanyl]-L-alanyl]-methyl ester","Orlov, Varshavsky, et al., 1974"
 198-96-9,, C,7.0 ¡À 0.1,EI,"5H-Naphtho[2,3-c]carbazole","Riepe and Zander, 1969"
 1592-49-0,, C,8.4,EI,"1H-Isoindole-1,3(2H)-dione, 2-[1,1'-biphenyl]-4-yl-","Cotter and Dine-Hart, 1966"
 109828-61-7, , C,7.5,PE,"1,1,2,2,9,9,10,10-Octamethyl-1,2,9,10-tetrasila[2.2]paracyclophane","Gleiter, Schafer, et al., 1988"
 75764-11-3,Vertical value, C,6.11,PE,"Ytterbium, bis(¦Ç","Green, Hohl, et al., 1987"
 74507-60-1,Vertical value, C,5.87,PE,"Vanadocene,decamethyl-","Cauletti, Green, et al., 1980"
 68757-81-3, , C,6.1,PE,"Tin, bis-¦Ç","Baxter, Cowley, et al., 1982"
 34895-45-9,LLK, C,7.5,PE,"Disulfide, bis(tricyclo[3.3.1.1","Jorgensen and Snyder, 1980"
 61342-05-0,Vertical value, C,7.6,PE,"Silane,[[1,1'-biphenyl]-4,4'-diylbis(methylene)]bis[trimethyl-","Bock, Kaim, et al., 1977"
 98814-97-2,Vertical value, C,5.79,PE,Decamethylrhenocene,"Bandy, Cloke, et al., 1988"
 90866-66-3,Vertical value, C,5.37,PE,"Samarium, bis(¦Ç","Green, Hohl, et al., 1987"
 80215-72-1,Vertical value, C,6.33,PE,"Lead, bis-¦Ç","Baxter, Cowley, et al., 1982"
 74507-63-4,Vertical value, C,5.82,PE,"Nickelocene,decamethyl-","Cauletti, Green, et al., 1980"
 67506-86-9,Vertical value, C,5.33,PE,Bis(pentamethylcyclopentadienyl)manganese,"Cauletti, Green, et al., 1980"
 54039-38-2,LLK, C,7.1,PE,Bis(¦Ç,"Ciliberto, Condorelli, et al., 1981"
 67506-89-2, , C,6.4,PE,"Uranium, dichlorobis[(1,2,3,4,5-¦Ç)-1,2,3,4,5-pentamethyl-2,4-cyclopentadien-1-yl]-","Ciliberto, Condorelli, et al., 1981"
 67506-88-1, , C,7.1,PE,"Thorium dichlorobis[(1,2,3,4,5-¦Ç","Ciliberto, Condorelli, et al., 1981"
 101200-04-8, , C,5.9,PE,"Europium, bis(¦Ç","Green, Hohl, et al., 1987"
 85202-43-3, , C,5.63,PE,"Dicobalt, bis(¦Ì","Dudeney, Green, et al., 1984"
 74507-62-3,Vertical value, C,4.705,PE,"Cobaltocene,decamethyl-","Cauletti, Green, et al., 1980"
 99030-99-6,Vertical value, C,6.19 ¡À 0.02,PE,"Iron, bis(¦Ç","Lichtenberger and Copenhaver, 1990"
 12126-50-0,LL, C,5.8 ¡À 0.1,PI,Bis(pentamethylcyclopentadienyl)iron,"Barfuss, Emrich, et al., 1990"
 74507-61-2,Vertical value, C,4.93,PE,"Chromocene, decamethyl-","Cauletti, Green, et al., 1980"
 50356-52-0,Vertical value, C,7.11,PE,"Pentalene,1,3,5-tris(1,1-dimethylethyl)-","Bischof, Gleiter, et al., 1978"
 33414-29-8,, C,8.54 ¡À 0.07,CTS,"10H-Phenothiazine,10-[3-(4-morpholinyl)-1-oxopropyl]-2-(trifluoromethyl)-","Poltorakov, Pirnazarova, et al., 1973"
 84-97-9,, C,6.87 ¡À 0.07,CTS,Perazine,"Poltorakov, Pirnazarova, et al., 1973"
 50-37-3,Vertical value, C,7.25 ¡À 0.10,PE,"D-Lysergic acid N,N-diethylamide","Domelsmith, Munchausen, et al., 1977"
 52279-45-5,, C,8.31 ¡À 0.07,EI,"Phenol,2,2'-[iminobis(3,1-propanediylnitrilomethylidyne)]bis-","Taylor and Dillard, 1974"
 29197-96-4,Vertical value, C,7.21,PE,"Coumarin, 3-phenyl-4-methyl-7-diethylamino-","Redchenko, Safronov, et al., 1992"
 125963-15-7,Vertical value, C,6.53,PE,Bis(ethene)¦Ç,"Frankcom, Green, et al., 1993"
 53436-87-6,Vertical value, C,5.54,PE,"Titanium,[(1,2,3,4,5-)-1,2,3,4,5-pentamethyl-2,4-cyclopentadien-1-yl](6-1,2,3,4-tetramethyl-5-methylene-1,3-cyclopentadiene)-","Vondrak, Mach, et al., 1992"
 36154-49-1,, C,6.76 ¡À 0.05,EI,"Dicarbonyl((1,2,3,4,5-¦Ç","Distefano, Foffani, et al., 1971"
 30223-48-4,, C,7.89 ¡À 0.07,CTS,Fluacizine,"Poltorakov, Pirnazarova, et al., 1973"
 36154-47-9,, C,6.27 ¡À 0.05,EI,"Dicarbonyl((1,2,3,4,5-¦Ç","Distefano, Foffani, et al., 1971"
 1754-88-7,Vertical value, C,6.15,PE,"Phosphorane,ethylidenetriphenyl-","Starzewski and Bock, 1976"
 83115-11-1, , C,6.8,PE,"Diphosphene, bis(tris(trimethylsilyl)methyl)-","Gonbeau, Pfister-Guillouzo, et al., 1983"
 75356-86-4, , C,7.2,PE,"1,2-Diphospha-3-silacyclopropane, 1,2-bis(1,1-dimethylethyl)-3-diphenyl-","Gleiter, Uschmann, et al., 1986"
 17923-26-1,LBLHLM, C,6.1,PE,"Uranium, tetrakis(pentan-2,4-dionato)-","Casarin, Ciliberto, et al., 1982"
 52358-04-0,, C,7.78 ¡À 0.06,EI,"Copper,[[2,2'-thiobis(3,1-propanediylnitrilomethylidyne)]bis[phenolato]](2-)-N,N',O,O']-,(SP-4-2)-","Taylor and Dillard, 1974"
 52279-53-5,, C,7.75 ¡À 0.05,EI,"Copper,[[2,2'-[oxybis(3,1-propanediylnitrilomethylidyne)]bis[phenolato]](2-)-N","Taylor and Dillard, 1974"
 32627-13-7,Vertical value, C,7.83,PE,"Uranium, tetrakis(1,1,1-trifluoro-2,4-pentanedionato-o,o')-","Fragala, Condorelli, et al., 1978"
 17501-44-9,LBLHLM, C,7.6,PE,Zirconium acetylacetonate,"Casarin, Ciliberto, et al., 1982"
 17499-48-8,LBLHLM, C,6.9,PE,"Thorium, tetrakis(2,4-pentanedionato-O,O')-, (SA-8-11''11''1'1'''1'1''')-","Casarin, Ciliberto, et al., 1982"
 47182-04-7,Vertical value; , C,7.43,PE,"Ethanamine, N-triphenylphosphoranylidene-","Starzewski and Dieck, 1979"
 101-60-0, , C,6.6,PE,"21H,23H-porphine","Dupuis, Roberge, et al., 1980"
 30378-58-6,, C,7.80 ¡À 0.05,PE,"Xanthylium, 3,6-diamino-9-(2-carboxyphenyl)-, hydroxide, inner salt","Timoshenko, Korkoshko, et al., 1981"
 3576-75-8,Vertical value, C,7.51 ¡À 0.03,PE,"1,3-Diazadamantan-6-ol, 5,7-diphenyl-","Sasaki, Eguchi, et al., 1974"
 38705-08-7,Vertical value, C,7.54 ¡À 0.03,PE,"1,3-Diazatricyclo[3.3.1.1","Sasaki, Eguchi, et al., 1974"
 52279-52-4,, C,7.61 ¡À 0.06,EI,"Nickel, [[2,2'-[oxybis(3,1-propanediylnitrilomethylidyne)]bis[phenolato]](2-)-N,N',O,O',O""]-","Taylor and Dillard, 1974"
 52279-55-7,, C,7.44 ¡À 0.07,EI,"Nickel,[[2,2'-[thiobis(3,1-propanediylnitrilomethylidyne)]bis[phenolato]](2-)-N,N',o,o',s]-","Taylor and Dillard, 1974"
 19066-35-4,Vertical value, C,7.87 ¡À 0.03,PE,"3,7-Diazaadamantan-9-one, 1,5-diphenyl-","Sasaki, Eguchi, et al., 1974"
 795-42-6,LBLHLM, C,8.1,PE,"9,10[1',2']-Benzenoanthracene, 9,10-dibromo-9,10-dihydro-","Martin, Mayer, et al., 1983"
 60268-85-1,Vertical value, C,7.13,PE,"Benzo(a)pyrene, 7,8-dihydro-7,8-dihydroxy-9,10-epoxy-, trans-","Akiyama, Li, et al., 1979"
 75694-46-1,LLK, C,7.08 ¡À 0.02,PE,"2,3-Diphenylbenzo-1,4-dioxin","Bouchoux and Dagaut, 1981"
 53486-88-7,, C,7.58 ¡À 0.02,PE,"Benzo[b]benzo[3,4]cyclobuta[1,2-e][1,4]dioxin, 4b,10a-dihydro-4b-phenyl-","Bouchoux and Dagaut, 1981"
 57404-88-3,Vertical value, C,7.21,PE,"Benzo(a)pyrene, 7,8-dihydro-7,8-dihydroxy-, (E)-","Akiyama, Li, et al., 1979"
 198-55-0,LL, C,6.960 ¡À 0.001,LS,Perylene,"Shchuka, Motyka, et al., 1989"
 50-32-8,LLK, C,7.1,PE,Benzo[a]pyrene,"Clar and Schmidt, 1979"
 14126-89-7,, C,9.06 ¡À 0.05,EI,"Bis(1-phenyl-4,4,4-trifluoro-1,3-butanedionato)copper","Reichert and Westmore, 1970"
 192-97-2,LLK, C,7.41,PE,Benzo[e]pyrene,"Clar and Schmidt, 1979"
 54100-60-6,LLK, C,6.58,PE,"Azuleno[1,2,3-c,d]phenalene","Gleiter, Spanget-Larsen, et al., 1976"
 4670-86-4,LLK, C,6.84,PE,"Benz[a]indeno[1,2,3-cd]azulene","Sato, Seki, et al., 1981"
 6580-41-2,Vertical value, C,6.76,PE,"Azuleno[5,6,7-c,d]phenalene","Gleiter, Spanget-Larsen, et al., 1976"
 14128-84-8,, C,8.37 ¡À 0.05,EI,"Copper(II), benzoylacetonate","Reichert and Westmore, 1970"
 602-55-1,Vertical value, C,7.25,PE,"Anthracene, 9-phenyl-","Jongsma, Vermeer, et al., 1975"
 477-75-8,LBLHLM, C,7.8,PE,"9,10[1',2']-Benzenoanthracene, 9,10-dihydro-","Martin, Mayer, et al., 1983"
 844-20-2,Vertical value, C,7.65,PE,"Phenanthrene, 9-phenyl-","Schafer, Schweig, et al., 1974"
 33085-81-3,, C,5.9 ¡À 0.1,EI,"Chromium, bis[(1,2,3,4,4a,8a-¦Ç)-naphthalene]-","Herberich and Muller, 1969"
 11105-90-1,Vertical value, C,6.55,PE,"1,1'':1',1'''-Biferrocene","Bohm, Gleiter, et al., 1980"
 107819-44-3,, C,8.65,PE,"2,7,8b,3,4b,6-Ethanediylidene dipentaleno[1,6-ab:1',6'-ef]pentalene-4,5-dione, tetradecahydro-","Elsasser, Hassenruck, et al., 1991"
 316-51-8,LLK, C,7.20 ¡À 0.03,PE,"3,9-Dimethylbenz[a]anthracene","Akiyama, Harvey, et al., 1981"
 57-97-6,LLK, C,7.10 ¡À 0.03,PE,"Benz[a]anthracene, 7,12-dimethyl-","Akiyama, Harvey, et al., 1981"
 36398-39-7, , C,7.9,PE,"Dibenzo[a,c]cyclododecene, 5,6,11,12-tetradehydro-7,8,9,10-tetrahydro-","Gleiter, Schafer, et al., 1981"
 35187-19-0,LLK, C,7.18 ¡À 0.03,PE,"4,12-Dimethylbenz[a]anthracene","Akiyama, Harvey, et al., 1981"
 1287-38-3,Vertical value, C,6.6,PE,"1,1''-Biferrocene","Bohm, Gleiter, et al., 1980"
 22828-29-1,LLK, C,7.19,PE,"Benzene, 1,1'-(1,3,5,7-octatetraene-1,8-diyl)bis-, (all-E)-","Hudson, Ridyard, et al., 1976"
 60427-18-1, , C,7.2,PE,"[2.2]-Paracyclophane, 2,5-dicyano-2',5'-dimethoxy-","Gleiter, Schafer, et al., 1988"
 16460-56-3,, C,7.32 ¡À 0.05,PE,"Phthalazine,1,2,3,4-tetrahydro-2,3-diphenyl-","Rademacher, Bass, et al., 1977"
 72036-53-4,Vertical value; , C,8.88,PE,"5,5-Dimethyl-3-(p-phenylphenyl)-cyclohex-2-en-1-one","Pfister-Guillouzo, Geribaldi, et al., 1982"
 1232-89-9,, C,8.22 ¡À 0.06,EI,"D-Homoestra-1,3,5(10)-trien-17a-one,3-methoxy-","Zaretskii, Sadovskaya, et al., 1971"
 1232-88-8,, C,8.17 ¡À 0.08,EI,"D-Homoestra-1,3,5(10)-trien-17a-one,3-methoxy-,(8¦Á)-","Zaretskii, Sadovskaya, et al., 1971"
 60058-13-1,Vertical value, C,7.56,PE,"1,5-(Ethano[1,4]benzeneoethano)naphthalene","Kovac, Allan, et al., 1980"
 4432-72-8,LLK, C,7.4,PE,"(5,14:8,11)-Diethanobenzocyclododecane,6,7,12,13-tetrahydro-","Kovac, Allan, et al., 1980"
 65879-08-5, , C,7.4,PE,"1,7b,2,7a,3-[1,2,3,4,5]Pentanepentayl-1H-cyclopenta[e]biphenylene, 2,3-dihydro-","Gleiter, Zimmermann, et al., 1985"
 108079-27-2, , C,7.8,PE,"5,12,6,11-[1,4]-Butanediylidene-dibenzo[a,e]cyclooctene, 5,6,11,12-tetrahydro","Fessner, Sedelmeier, et al., 1987"
 70377-87-6,RDSH, C,6.5 ¡À 0.1,EI,Bis(¦Ç,"Muller, 1969"
 61477-04-1,Vertical value, C,7.75 ¡À 0.02,PE,"[2.2.2.2](1,2,3,5)Cyclophane","Kovac, Mohraz, et al., 1980"
 89683-62-5,, C,8.17,PE,"2,7,8b,3,4b,6-Ethanediylidene dipentaleno[1,6-ab:1',6'-ef]pentalene, hexadecahydro-","Elsasser, Hassenruck, et al., 1991"
 107798-67-4,Vertical value, C,7.12,PE,"2,7,3,6-Ethenediylidene dipentaleno[1,6-ab:1',6'-efl]pentalene,1,2,2a,3,4,4a,4c,5,6,6a,6b,7,8,8a,8c,8D-hexahydro-","Elsasser, Hassenruck, et al., 1991"
 14187-32-7,LBLHLM, C,7.6,PE,Dibenzo-18-crown-6,"Baker, Armen, et al., 1983"
 25401-41-6,Vertical value, C,8.10 ¡À 0.03,PE,"6,16-Methanobenzocyclopentadecen-18-one,8,9,10,11,12,13,14,15-octahydro-","Allan, Heilbronner, et al., 1975"
 54288-04-9,LBLHLM, C,7.2,PE,"Ethenol, 2,2-bis(2,4,6-trimethylphenyl)-","Lecoultre, Heilbronner, et al., 1986"
 1232-91-3,, C,7.82 ¡À 0.07,EI,"D-Homoestra-1,3,5(10),6,8-pentaen-17a-one,3-methoxy-,(14¦Â)-","Zaretskii, Sadovskaya, et al., 1971"
 1232-90-2,, C,7.56 ¡À 0.07,EI,"D-Homoestra-1,3,5(10),6,8-pentaen-17a-one,3-methoxy-","Zaretskii, Sadovskaya, et al., 1971"
 63796-69-0,Vertical value, C,7.76,PE,"Iron,dicarbonylbis(ethylphenylcarbamodithioato-s,s')-(oc-6-21)-","Cauletti, Duffy, et al., 1977"
 1298-75-5,, C,7.4 ¡À 0.1,EI,Tetrakis(cyclopentadienyl)thorium,"Muller, 1969"
 54100-59-3, , C,7.35,PE,"1,2,4,5-[2.2.2.2]Cyclophane","Zhong-zhi, Heilbronner, et al., 1981"
 69631-55-6,Vertical value, C,7.9 ¡À 0.1,PE,"[2.2.2.2](1,2,3,4)Cyclophane","Kovac, Mohraz, et al., 1980"
 107798-68-5,, C,7.9,PE,"2,7,3,6-Ethanediylidene dipentaleno[1,6-ab:1',6'-ef]pentalene,1,2,2a,3,4,4a,4c,5,6,6a,6b,7,8,8a,8c,8D-hexadecahydro-","Elsasser, Hassenruck, et al., 1991"
 52279-51-3,, C,7.53 ¡À 0.10,EI,"Cobalt,[[2,2'-[oxybis(3,1-propanediylnitrilomethylidyne)]bis[phenolato]](2-)N","Taylor and Dillard, 1974"
 52279-54-6,, C,7.58 ¡À 0.07,EI,"Cobalt,[[2,2'-[thiobis(3,1-propanediylnitrilomethylidyne)]bis[phenolato]](2-)-N,N',O,O']-,(T-4)-","Taylor and Dillard, 1974"
 63378-88-1,, C,7.01 ¡À 0.05,PE,"Phthalazine,decahydro-2,3-diphenyl,trans-","Rademacher, Bass, et al., 1977"
 58-38-8,LLK, C,7.03 ¡À 0.07,CTS,Prochlorperazine,"Poltorakov, Pirnazarova, et al., 1973"
 52279-43-3,, C,8.40 ¡À 0.10,EI,"Phenol,2,2'-[oxybis(3,1-propanediylnitrilomethylidyne)]bis-","Taylor and Dillard, 1974"
 51307-45-0,, C,7.88 ¡À 0.07,CTS,"10H-Phenothiazine,10-[4-(diethylamino)-1-oxobutyl]-","Poltorakov, Pirnazarova, et al., 1973"
 52881-79-5,, C,8.8,EI,"Piperidine,1,1'-[1,2-phenylenebis(1-oxo-2,1-ethanediyl)]bis-","Bohlmann, Herrmann, et al., 1974"
 52279-44-4,, C,8.51 ¡À 0.10,EI,"Phenol,2,2'-[thiobis(3,1-propanediylnitrilomethylidyne)]bis-","Taylor and Dillard, 1974"
 52881-80-8,, C,8.6,EI,"Pyridine, 1,1'-[1,2-phenylenebis(1-oxo-2,1-ethanediyl)]bis[1,2,3,4-tetrahydro-","Bohlmann, Herrmann, et al., 1974"
 17051-01-3,Vertical value; , C,7.61,PE,"Diazene, bis(4-butoxyphenyl)-, 1-oxide","Millefiori, Ciliberto, et al., 1981"
 37274-10-5,LBLHLM, C,5.9,PE,Bis(¦Ç,"Green, Payne, et al., 1983"
 35233-71-7, , C,7.2,PE,"Tricyclo[8.2.2.2<sup>4,7</sup>]hexadeca-4,6,10,12,13,15-hexaene,5,11,13,15-tetramethyl-,stereoisomer","Zhong-zhi, Kovak, et al., 1981"
 65304-59-8,Vertical value, C,7.47,PE,Tricyclo[8.2.2.2,"Kovac, Mohraz, et al., 1980"
 61414-48-0,Vertical value, C,8.27 ¡À 0.03,PE,"1,3,7,9-Cyclododecatetrayne,5,5,6,6,11,11,12,12-octamethyl-","Santiago, Houk, et al., 1978"
 35233-72-8,Vertical value, C,7.55 ¡À 0.05,PE,"2,5,3',6'-Tetramethyl-[2.2]paracyclophane","Zhong-zhi, Kovak, et al., 1981"
 71779-89-0,Vertical value, C,7.60 ¡À 0.05,PE,"2,3,5',6'-Tetramethyl-[2.2]paracyclophane","Zhong-zhi, Kovak, et al., 1981"
 30541-56-1,Vertical value, C,7.84,PE,Tricyclo[3.3.1.1,"Mollere, Houk, et al., 1976"
 57820-98-1,Vertical value; , C,4.85,PE,Bis-(¦Ç,"Cabelli, Cowley, et al., 1982"
 51951-64-5,Vertical value; , C,5.23,PE,Bis-(¦Ç,"Cabelli, Cowley, et al., 1982"
 311-89-7,LBLHLM, C,11.3,PE,Perfluorotributylamine,"Molder, Pikver, et al., 1983"
 61279-76-3,RDSH, Be,~11.,EI,Beryllium oxide,"Chupka, Berkowitz, et al., 1959"
 61279-74-1,RDSH, Be,11,EI,Beryllium oxide,"Chupka, Berkowitz, et al., 1959"
 61279-75-2,RDSH, Be,~11.,EI,Beryllium oxide,"Chupka, Berkowitz, et al., 1959"
 1554-93-4,Vertical value; , C,9.1 ¡À 0.1,PE,"Acenaphthylene, octafluoro-","Bastide, Hall, et al., 1979"
 32937-02-3,LBLHLM, C,11.1,PE,"3,3,4,4,7,7,8,8,11,11,12,12-Dodecafluorotetracyclo-[8.2.0.0","Heilbronner, Wirz, et al., 1984"
 7440-41-7,LL, Be,9.32263,EVAL,beryllium,"Lide, 1992"
 74632-45-4,Vertical value, C,10.25,PE,"Azobenzene, 2,2',3,3',5,5',6,6'-octafluoro-4,4'-dinitro-","Petrachenko, Vovna, et al., 1993"
 136316-32-0,LL, C,7.05 ¡À 0.10,PI,Fullerene-C78,"Steger, Holzapfel, et al., 1995"
 115383-22-7,LL, C,8. ¡À 0.5,EI,c70-Fullerene,"Worgotter, Dunser, et al., 1994"
 115383-21-6,LL, C,7.61 ¡À 0.11,IMB,c50-Fullerene,"Zimmerman and Eyler, 1991"
 81-31-2,, C,6.86,CTS,Violanthrene,"Kuroda, 1964"
 4430-29-9,, C,6.76,CTS,Isoviolanthrene,"Kuroda, 1964"
 385-16-0,LLK, C,6.73 ¡À 0.02,PE,"Benzo[a]phenanthro[9,10-c]naphthacene","Schmidt, 1977"
 20495-12-9,LLK, C,7.15,PE,"Naphtho[2,1-c]phenanthro[4,3-g]phenanthrene","Obenland and Schmidt, 1975"
 215-95-2, , C,7.00 ¡À 0.02,PE,"Tetrabenzo[a,c,j,l]naphthacene","Schmidt, 1977"
 385-15-9,LLK, C,6.83 ¡À 0.02,PE,"Tetrabenzo[b,g,k,p]chrysene","Schmidt, 1977"
 214-87-9,, C,6.90 ¡À 0.02,PE,Benz[j]heptaphene,"Schmidt, 1977"
 187-94-0,Vertical value, C,6.82 ¡À 0.02,PE,"Dibenzo[fg,ij]phenanthro[2,1,10,9,8,7-pqrstuv]pentaphene","Clar and Schmidt, 1978"
 188-11-4,, C,6.74 ¡À 0.02,PE,"Benzo[pqr]dinaphtho[8,1,2-bcd:2,1,8-lmn]perylene","Clar and Schmidt, 1978"
 42506-57-0,Vertical value, C,5.8,PE,"4H-Pyran, 4-(2,6-diphenyl-4H-pyran-4-ylidene)-2,6-diphenyl-","Traven, Martirosyan, et al., 1987"
 5131-00-0,Vertical value, C,6.3,PE,"1,3,5,7-Tetramethyl-2,6-diethyl-4,8-di-n-propyl porphin","Dupuis, Roberge, et al., 1980"
 42506-60-5,Vertical value, C,5.84,PE,"4H-Thiopyran, 4-(2,6-diphenyl-4H-thiopyran-4-ylidene)-2,6-diphenyl-","Traven, Martirosyan, et al., 1987"
 57026-52-5,Vertical value, C,6.1,PE,"Biselenopyranylidene, 2,2',6,6'-tetraphenyl-","Traven, Martirosyan, et al., 1987"
 191-53-7,LLK, C,6.58,PE,"Tetrabenzo[a,cd,j,lm]perylene","Sato, Seki, et al., 1981"
 191-79-7,RDSH, C,6.06,CTS,"Tetrabenzo[de,hi,op,st]pentacene","Matsen, 1956"
 191-46-8,Vertical value, C,6.59 ¡À 0.02,PE,"Dibenzo[a,rst]naphtho[8,1,2-cde]pentaphene","Clar and Schmidt, 1978"
 188-87-4,Vertical value, C,6.48 ¡À 0.02,PE,"Tetrabenzo[c,m,pqr,tuv]picene","Clar and Schmidt, 1978"
 188-84-1,Vertical value, C,6.42 ¡À 0.02,PE,"Dinaphtho[1,2,3-cd:1',2',3'-lm]perylene","Clar and Schmidt, 1978"
 313-63-3,Vertical value, C,6.84,PE,"Dibenzo[fg,ij]naphtho[1,2,3,4-rst]pentaphene","Clar and Schmidt, 1977"
 190-93-2,Vertical value, C,6.59 ¡À 0.02,PE,"Dibenzo[m,pqr]naptho[1,2,3,4-tuv]picene","Clar and Schmidt, 1978"
 188-13-6,RDSH, C,6.46,CTS,"Tetrabenzo[de,h,kl,rst]pentaphene","Briegleb, 1964"
 435-02-9,LLK, C,6.58,PE,"Dibenzo[de, yz] naphtho[8, 1, 2- hij] hexaphene","Clar and Schmidt, 1979"
 187-96-2, , C,6.06 ¡À 0.02,PE,"Tribenzo[de,h,kl]naphtho[1,2,3,4-rst]tetraphene","Clar and Schmidt, 1978"
 34814-77-2,Vertical value; , C,6.40 ¡À 0.02,PE,"Tribenzo[fg,mn,xyz]heptaphene","Clar and Schmidt, 1978"
 14529-73-8,LLK, C,6.72,PE,"Benzo[wx]naphtho[2,1,8,7-hijk]heptacene","Clar and Schmidt, 1977"
 76748-63-5,, C,6.69,PE,"Benzo[ghi]naphth[2',1',8',7':5,6,7]aceanthrylene[10,1,2-abcd]perylene","Clar, Robertson, et al., 1981"
 41163-25-1,Vertical value; , C,6.81 ¡À 0.02,PE,"Naph[2,1,8,7:4,10,5]anthra[1,9,8-abcd]coronene","Clar and Schmidt, 1978"
 190-90-9,, C,6.38 ¡À 0.02,PE,"Benzo[rs]dinaphtho[2,1,8,7-klmn:3',2',1',8',7'-vwxyz]hexaphene","Clar and Schmidt, 1978"
 190-89-6, , C,6.5,PE,"Dibenzo[jk,uv]dinaphtho[2,1,8,7-defg:2',1',8',7'-opqr]pentacene","Clar, Robertson, et al., 1981"
 20495-14-1,LLK, C,7.07,PE,[9]Helicene,"Obenland and Schmidt, 1975"
 216-07-9,, C,6.65 ¡À 0.02,PE,"Tetrabenzo[a,c,l,o]pentacene","Schmidt, 1977"
 4997-62-0,, C,7.72 ¡À 0.05,EI,"Benzene, 1,1',1'',1''',1'''',1'''''-[bi-2-cyclopropen-1-yl]-1,1',2,2',3,3'-hexaylhexakis-","Gyorosi, Hvistendahl, et al., 1975"
 992-04-1,, C,8.47 ¡À 0.05,EI,Hexaphenylbenzene,"Gyorosi, Hvistendahl, et al., 1975"
 214-77-7,, C,6.85 ¡À 0.02,PE,"Anthra[2,3-j]heptaphene","Schmidt, 1977"
 57520-29-3,Vertical value; , C,6.99,PE,"Benzo[g]phenanthro[3,4-c:6,5-c']diphenanthrene[10]helicene","Obenland and Schmidt, 1975"
 190-23-8,, C,7.52 ¡À 0.02,PE,"Dibenzo[f,j]phenanthro[9,10-s]picene","Schmidt, 1977"
 34814-82-9,LLK, C,6.18 ¡À 0.02,PE,"Dibenzo[fg,mn]naphtho[1,2,3,4-xyz]heptaphene","Clar and Schmidt, 1978"
 190-22-7,, C,6.71 ¡À 0.02,PE,"Hexabenzo[a,cd,f,j,lm,o]perylene","Clar and Schmidt, 1978"
 190-09-0,, C,6.22,PE,"Dinaphtho-[2,1,8-c,d,a:2',1',8'-nop]heptacene","Clar and Schmidt, 1979"
 517-51-1,LLK, C,6.41,PE,"5,6,11,12-Tetraphenylnaphthacene","Sato, Seki, et al., 1981"
 190-24-9,RDSH, C,7.1 ¡À 0.1,EI,Hexabenzo[bc:ef:hi:kl:no:qr]coronene,"Gallegos, 1968"
 34814-80-7,LLK, C,6.72 ¡À 0.02,PE,"Dibenzo[fg,mn]phenanthro[2,1,10,9,8,7-vwxyza,b]heptaphene","Clar and Schmidt, 1978"
 57468-46-9,Vertical value; , C,6.93,PE,"Dinaphtho[1,2-g:1',2'-g']naphtho[2,1-c:7,8-c']diphenanthrene","Obenland and Schmidt, 1975"
 72382-92-4,LLK, C,6.7,PE,"Tetranaphtho[3,2,1-de:1',2',3'-jk:3&quot;,2&quot;,1&quot;-op:1''',2''',3'''-uv)pentacene","Clar and Schmidt, 1979"
 57483-71-3,Vertical value; , C,6.88,PE,[14]Helicene,"Obenland and Schmidt, 1975"
 136846-56-5,LL, C,7.27 ¡À 0.14,IMB,c66-Fullerene,"Zimmerman and Eyler, 1991"
 576-59-0,, C,7.9,PE,p-Iodoanil,"Sato, Seki, et al., 1981"
 14040-11-0,LBLHLM, C,8,PE,Tungsten hexacarbonyl,"Cooper, Green, et al., 1987"