CAS,Comment,Formula,IE,Method,Name,Refer
 64482-94-6,Vertical value, C,6.88,PE,"2,3-Dihydro-1,2,2,3-tetramethyl-1H-perimidine","Gleiter and Uschmann, 1986"
 59805-15-1,, C,7.5,CTS,"4,4'-Bipyridinium,2-methoxy-1-(methoxycarbonyl)-2-oxoethylidide","Kokars, Kampars, et al., 1975"
 15169-25-2,Vertical value, C,8.51,PE,"Cobalt,tris(3-nitro-2,4-pentanedionato-o","Brittain, Horozoglu, et al., 1979"
 15025-12-4, , C,7.4,PE,"Aluminum, tris(3-bromopentan-2,4-dionato)-","Akopyan, Vovna, et al., 1990"
 23708-66-9,, C,¡Ü8.6,EI,"Dibenzo[b,e]stannin,5,10-dihydro-5,5-dimethyl-","Terlouw, Heerma, et al., 1974"
 108008-51-1, , C,6.7,PE,"Cobalt, ¦Ç","Wakatuski, Yamazaki, et al., 1987"
 19486-60-3,Vertical value, C,8.50 ¡À 0.02,PE,"1,1'-Biphenyl, 2-(1-methylethyl)-","Maier and Turner, 1972"
 1081-75-0,LLK, C,8.79 ¡À 0.05,EI,"Benzene, 1,1'-(1,3-propanediyl)bis-","Kuck and Grutzmacher, 1979"
 36530-11-7,, C,7.65 ¡À 0.02,EI,"(3-Nitro-2,4-pentanedionato-o","Bursey and Rogerson, 1971"
 20282-28-4,Vertical value, C,8.50 ¡À 0.02,PE,"1,1'-Biphenyl, 2-propyl-","Maier and Turner, 1972"
 67139-54-2,, C,8. ¡À 0.3,EI,"Carbamothioic acid,phenyl-0-(8-methyl-8-azabicyclo[3.2.1]oct-3-yl)ester,endo-","Grutzmacher and Lange, 1978"
 67139-55-3,, C,8. ¡À 0.3,EI,"Carbamothioic acid,phenyl-o-(8-methyl-8-azabicyclo[3.2.1]oct-3-yl)ester,exo-","Grutzmacher and Lange, 1978"
 29364-21-4,, C,8.0 ¡À 0.15,EI,"1-¦Á-H,5-¦Á-H-Tropan-3-¦Â-ol, carbanilate","Grutzmacher and Lange, 1978"
 88635-76-1,LBLHLM, C,7.1,PE,"2,5,7,10-Tetramethylbicyclo[4.4.1]undeca-1,3,5,7,9-pentaene","Andrea, Cerfontain, et al., 1984"
 1206-79-7,LLK, C,7.85 ¡À 0.05,PE,Tricyclopentabenzene,"Heilbronner, Kovac, et al., 1981"
 34403-06-0,LLK, C,8.59 ¡À 0.05,EI,"Benzene,1-methyl-3-(2-phenylethyl)-","Kuck and Grutzmacher, 1979"
 14310-20-4,, C,8.58 ¡À 0.05,EI,"Benzene,1-methyl-4-(2-phenylethyl)-","Kuck and Grutzmacher, 1979"
 34403-05-9,, C,8.64 ¡À 0.05,EI,"Benzene,1-methyl-2-(2-phenylethyl)-","Kuck and Grutzmacher, 1979"
 105122-04-1, , C,7.9,PE,"5,6-Benzotetracyclo[6.3.0.0","Fessner, Sedelmeier, et al., 1987"
 80025-09-8,LLK, C,8.29 ¡À 0.08,PE,"1-Phenyl-3,3-diethylpentyne","Elbel, Lienert, et al., 1981"
 71275-32-6,, C,8.06 ¡À 0.05,EI,"1,3,5-Cycloheptatriene,7-(2-phenylethyl)-","Kuck and Grutzmacher, 1979"
 18938-24-4,, C,8.85 ¡À 0.04,EI,Tris(trimethylsilyl)ethylene,"Bock and Seidl, 1968"
 39980-56-8,Vertical value, C,6.18,PE,"Disilanamine, 1,1,2,2-tetramethyl-N-(trimethylphosphoranylidene)-2-[(trimethylphosphoranylidene)methyl]-","Starzewski, Dieck, et al., 1974"
 140210-44-2, , C,8,PE,"Cyclopentane-1,2-dione, 3,3,5,5-tetramethyl, bis(o-methyloxime)-(E,E)-","Stunnenberg and Cerfontain, 1987"
 140210-45-3, , C,7.9,PE,"Cyclopentane-1,2-dione, 3,3,5,5-tetramethyl, bis(o-methyloxime)-(E,Z)-","Stunnenberg and Cerfontain, 1987"
 55728-13-7,, C,8.6 ¡À 0.1,PI,"L-Alanine,N-(N-acetyl-L-valyl)-methyl ester","Orlov, Varshavsky, et al., 1974"
 140401-51-0, , C,7.8,PE,"Cyclopentane-1,2-dione, 3,3,5,5-tetramethyl, bis(o-methyloxime)-(Z,Z)-","Stunnenberg and Cerfontain, 1987"
 78134-09-5,Vertical value, C,7.75,PE,"1,4-Diazepine-2-one-3-thione, 1,4-diisopropyl-perhydro-","Henriksen, Isaksson, et al., 1981"
 3129-39-3,LLK, C,9.25,PE,2-Bromo-3-methylnaphthoquinone,"Redchenko, Freimanis, et al., 1980"
 72662-55-6,Vertical value, C,7.53,PE,"1,4-Diazepine-2,3-dithione, 1,4-diisopropyl-perhydro-","Henriksen, Isaksson, et al., 1981"
 64914-33-6,Vertical value, C,7.18,PE,"Chromium, pentacarbonyl(4-methoxypyridine-N(1))-","Weiner, Gin, et al., 1977"
 64914-26-7,Vertical value, C,7.22,PE,"Chromium,pentacarbonyl(4-methylpyridine)-(OC-6-22)-","Weiner, Gin, et al., 1977"
 17000-14-5,, C,7.46 ¡À 0.05,EI,Pentacarbonyl(4-methylpyridine)tungsten,"Distefano, Foffani, et al., 1971"
 613-46-7,LBLHLM, C,8.56,PE,2-Naphthalenecarbonitrile,"Klasinc, Kovac, et al., 1983"
 12109-10-3,LLK, C,7.38,CTS,(¦Ç,"Kobayashi, Kobayashi, et al., 1973"
 86-53-3,LBLHLM, C,8.59,PE,1-Naphthalenecarbonitrile,"Klasinc, Kovac, et al., 1983"
 68969-72-2, , C,7.8,PE,"Diphosphirane, 1,2-bis(1,1-dimethylethyl)-3,3-dimethyl-","Gleiter, Bohm, et al., 1981"
 6975-98-0,LL, C,9.34,EST,"Decane, 2-methyl-","Luo and Pacey, 1992"
 61235-67-4,Vertical value, C,7.65,PE,"1,3,2-Dithiastannolane,2,2-dibutyl-4-methyl-","Delmas and Maire, 1978"
 84904-98-3, , C,6.3,PE,"1,7-Diazabicyclo[5.3.3]tridecane","Honegger, Yang, et al., 1985"
 60778-60-1,Vertical value; , C,8.17,PE,"1H-Azepine, hexahydro-1-(1-piperidinyl)-","Nelsen, 1984"
 67216-34-6,, C,8.0 ¡À 0.15,EI,"8-Azabicyclo[3.2.1]octan-3-amine,8-methyl-N-propyl-endo-","Grutzmacher and Lange, 1978"
 84905-06-6, , C,6.8,PE,"1,8-Diazabicyclo[6.3.2]tridecane","Honegger, Yang, et al., 1985"
 84904-99-4, , C,6.8,PE,"1,7-Diazabicyclo[5.4.2]tridecane","Honegger, Yang, et al., 1985"
 12093-16-2,RDSH, C,6.1 ¡À 0.1,EI,"Chromium,(¦Ç","Muller and Goser, 1968"
 84814-11-9,Vertical value, C,6.4,PE,"1,3,2-Diazasilolidine, 1,3-di-tert-butyl-2-methyl-","tom Dieck, Bruder, et al., 1983"
 67139-56-4,, C,8.1 ¡À 0.15,EI,"8-Azabicyclo[3.2.1]octan-3-amine,8-methyl-N-propyl-exo-","Grutzmacher and Lange, 1978"
 1120-21-4,LL, C,9.59,EST,Undecane,"Luo and Pacey, 1992"
 112-12-9,, C,9.29 ¡À 0.01,PE,2-Undecanone,"Cocksey, Eland, et al., 1971"
 33630-76-1,Vertical value, C,8.05,PE,"Silane,2,4-cyclopentadien-1-ylidenebis[trimethyl-","Bock and Kaim, 1980"
 15876-31-0,Vertical value, C,9.32 ¡À 0.02,PE,"Cyclohexane,1-(1,1-dimethylethyl)-4-methoxy-trans-","Brown, Marcinko, et al., 1979"
 15875-99-7,Vertical value, C,9.36 ¡À 0.02,PE,"Cyclohexane,1-(1,1-dimethylethyl)-4-methoxy-cis-","Brown, Marcinko, et al., 1979"
 4457-00-5,, C,9.90 ¡À 0.03,PE,"Cyclopentane, hexyl-","Rang, Paldoia, et al., 1974"
 41751-68-2, , C,7.4,PE,¦Ì,"Chesky and Hall, 1981"
 13682-04-7,LBLHLM, C,7.9,PE,"Cobalt, nonacarbonyl-¦Ì3-ethylidynetri-, triangulo","Granozzi, Tondello, et al., 1982"
 19976-82-0,, C,7.9,PE,"Tungsten, pentacarbonyl(hexamethylphosphorous triamide-P)-, (OC-6-22)-","Yarbrough and Hall, 1978"
 103021-43-8, , C,7,PE,"2,7-Diazatetracyclo[3.3.3.0","Werstiuk, Butler, et al., 1986"
 50787-14-9,LLK, C,8.041 ¡À 0.020,PE,"2,3-Diethyl-3-heptene","Masclet, Grosjean, et al., 1973"
 59163-55-2,Vertical value, C,7.72 ¡À 0.05,PE,"Silane,trimethyl[[4-(methylthio)phenyl]methyl]-","Colonna, Danieli, et al., 1976"
 59163-58-5,Vertical value, C,7.70 ¡À 0.05,PE,"Stannane,trimethyl[[4-(methylthio)phenyl]methyl]-","Colonna, Danieli, et al., 1976"
 86596-78-3,LBLHLM, C,7.7,PE,"8,9-Dithiabicyclo[7.2.0]non-1(7)-ene, 2,2,6,6-tetramethyl-","Jian-qi, Mohraz, et al., 1983"
 700-56-1,RDSH, C,9.24,PE,2-Methyladamantane,"Bodor, Dewar, et al., 1970"
 768-91-2,LLK, C,9.17 ¡À 0.02,PE,1-Methyladamantane,"Worley, Mateescu, et al., 1973"
 11105-69-4, , C,6.1,PE,"Tantalum, carbonyl bis(¦Ç","Van Dam, Terpstra, et al., 1981"
 50745-90-9,, C,9.35 ¡À 0.05,PI,"4,7-Methano-1H-indene,octahydro-2-methyl-,(2&#945;,3a&#946;,4&#945;,7&#945;,7a&#946;)-","Fedorova, Denisov, et al., 1973"
 50745-92-1,, C,9.35 ¡À 0.05,PI,"4,7-Methano-1H-indene,octahydro-8-methyl-,stereoisomer","Fedorova, Denisov, et al., 1973"
 56086-62-5,, C,9.35 ¡À 0.05,PI,"4,7-Methano-1H-indene,octahydro-,(3a-methyl-)-","Fedorova, Denisov, et al., 1973"
 702-98-7,, C,9.22,PE,2-Methyl-2-adamantanol,"Bodor, Dewar, et al., 1970"
 68347-39-7,LBLHLM, C,8.2,PE,"1,2-Cycloheptanedione,3,3,7,7-tetramethyl-","Verheijdt and Cerfontain, 1982"
 59880-80-7,Vertical value, C,9.31,PE,"2,4-Dioxabicyclo[3.2.2]non-6-ene,1-methyl-5-(1-methylethyl)-","Brown, 1976"
 14971-43-8, , C,5.7 ¡À 0.05,EI,"Molybdenum, pentacarbonyl(hexamethylphosphorous triamide-P)-, (OC-6-22)-","Saalfeld, DeCorpo, et al., 1972"
 75905-10-1,LBLHLM, C,8.7,PE,2-Triethoxymethylfuran,"Zykov, Erchak, et al., 1983"
 55332-01-9,, C,9.41 ¡À 0.08,EI,"2(1H)-Naphthalenone, octahydro-3-methyl-, (3¦Á,4a¦Â,8a¦Á)-","Jaudon and Tabet, 1980"
 21102-88-5,, C,9.32 ¡À 0.08,EI,"2(1H)-Naphthalenone, octahydro-1-methyl-, (1¦Á,4a¦Â,8a¦Á)-","Jaudon and Tabet, 1980"
 74895-96-8,, C,9.45 ¡À 0.08,EI,"2H-Inden-2-one, 1-ethyloctahydro-","Jaudon and Tabet, 1980"
 15137-66-3, , C,6.6 ¡À 0.05,EI,"Chromium, pentacarbonyl(hexamethylphosphorous triamide-P)-, (OC-6-22)-","Saalfeld, DeCorpo, et al., 1972"
 67497-82-9,Vertical value, C,9.35 ¡À 0.02,PE,"4a(2H)-Naphthalenol,1,3,4,7,8,8a-hexahydro-8a-methyl-trans-","Brown, Marcinko, et al., 1979"
 19985-79-6,Vertical value, C,8.36,PE,"2-Cyclopropen-1-one,2,3-bis(1,1-dimethylethyl)-","Dehmlow, Dehmlow, et al., 1977"
 68211-44-9,Vertical value, C,9.26 ¡À 0.02,PE,"4a(2H)-Naphthalenol,1,3,4,7,8,8a-hexahydro-8a-methyl-cis-","Brown, Marcinko, et al., 1979"
 85523-06-4, , C,8.8,PE,Tricyclo[4.3.1.1,"Tombo, Ammann, et al., 1983"
 74895-97-9,, C,9.40 ¡À 0.08,EI,"1H-Inden-1-one, 7a-ethyloctahydro-","Jaudon and Tabet, 1980"
 4087-50-7,LL, C,7.15,PE,"1,3-Cyclopentadiene, 1,2,3,4,5,5-hexamethyl-","Kiselev, Sakhabutdinov, et al., 1992"
 52879-54-6,LBLHLM, C,8.5,PE,Dispiro[2.0.5.2]undecane,"Spanget-Larsen, Gleiter, et al., 1982"
 27538-47-2,, C,8.6 ¡À 0.1,PI,2-Methylenebornane,"Demeo and El-Sayed, 1970"
 33470-40-5,LLK, C,8.4,PE,"Cycloheptyne,3,3,7,7-tetramethyl-","Schmidt, Schweig, et al., 1974"
 38255-97-9,, C,9.15,PI,"4,7-Ethano-1H-indene, octahydro-","Fedorova, Potapov, et al., 1974"
 62702-04-9,Vertical value, C,8.92 ¡À 0.02,PE,"Naphthalene,1,2,3,4,4a,5,6,8a-octahydro-4a-methyl-trans-","Brown, Marcinko, et al., 1979"
 68211-37-0,Vertical value, C,8.92 ¡À 0.05,PE,"Naphthalene,1,2,3,4,4a,5,6,8a-octahydro-4a-methyl-trans-","Brown and Marcinko, 1978"
 51027-86-2,, C,9.25,PI,"4,7-Methanoazulene,decahydro-","Fedorova, Potapov, et al., 1974"
 13303-30-5,, C,7.46,PE,"Cyclopropane,tetramethyl(2-methyl-1-propenylidene)-","Pasto, Fehlner, et al., 1976"
 2690-15-5,Vertical value, C,8.95 ¡À 0.05,PE,"Cyclohexane,2-cyclopenten-1-yl-","McAlduff, Caramella, et al., 1978"
 65698-42-2,Vertical value, C,8.92 ¡À 0.02,PE,"Naphthalene,1,2,3,4,4a,5,6,8a-octahydro-4a-methyl-cis-","Brown, Marcinko, et al., 1979"
 54854-73-8,Vertical value, C,7.69,PE,"Gold,(dimethylphenylphosphine)trimethyl-","Behan, Johnstone, et al., 1978"
 4291-99-0,, C,8.43 ¡À 0.01,PE,"Cyclopentene,1-hexyl-","Rang, Paldoia, et al., 1974"
 2294-72-6,LLK, C,9.11 ¡À 0.02,PI,5-Undecyne,"Rang and Martinson, 1978"
 60212-31-9,LLK, C,9.13 ¡À 0.02,PI,4-Undecyne,"Rang and Martinson, 1978"
 60212-30-8,LLK, C,9.17 ¡À 0.02,PI,3-Undecyne,"Rang and Martinson, 1978"
 37689-18-2,, C,8.84 ¡À 0.02,PE,"Cyclopentene,3-hexyl-","Rang, Paldoia, et al., 1974"
 32284-96-1,, C,8.29,PE,"Digermane, pentamethyl-phenyl-","Sakurai, Ichinose, et al., 1984"
 60212-29-5,LLK, C,9.28 ¡À 0.02,PI,2-Undecyne,"Rang and Martinson, 1978"
 15232-85-6,, C,8.37 ¡À 0.02,PE,"Cyclohexene, 1-pentyl-","Rang, Paldoia, et al., 1974"
 94397-44-1,, C,8.15,CT,"Silane, dimethyl-phenyl-(trimethylstannyl)-","Sakurai, Ichinose, et al., 1984"
 2243-98-3,LLK, C,9.90 ¡À 0.02,PI,1-Undecyne,"Rang and Martinson, 1978"
 27856-24-2,, C,8.4 ¡À 0.2,EI,"Silane,[4-(dimethylsilyl)phenyl]trimethyl-","Dube and Chvalovsky, 1974"
 1118-71-4,LLK, C,7.9,PE,"3,5-Heptanedione, 2,2,6,6-tetramethyl-","Evans, Hamnett, et al., 1972"
 33546-27-9,, C,8.8 ¡À 0.2,EI,"Silane,[3-(dimethylsilyl)phenyl]dimethoxymethyl-","Dube and Chvalovsky, 1974"
 34239-01-5,, C,8.5 ¡À 0.2,EI,"Silane,[4-(dimethylsilyl)phenyl]dimethoxymethyl-","Dube and Chvalovsky, 1974"
 59880-83-0,Vertical value, C,9.29,PE,"2,4-Dioxabicyclo[3.2.2]nonane,1-methyl-5-(1-methylethyl)-","Brown, 1976"
 1130-17-2,LBLHLM, C,8.39,CT,"Disilane,pentamethylphenyl-","Sakurai, Ichinose, et al., 1984"
 85152-89-2, , C,7.3,PE,Tetraethoxyallene,"Gleiter, Saalfrank, et al., 1983"
 37899-63-1,, C,8.33,PE,"Silane, (dimethylphenylgermyl)trimethyl-","Sakurai, Ichinose, et al., 1984"
 37865-47-7,, C,8.37,PE,"Silane, dimethyl-phenyl-(trimethylgermyl)-","Sakurai, Ichinose, et al., 1984"
 34239-00-4,, C,8.5 ¡À 0.2,EI,"Silane,[3-(dimethylsilyl)phenyl]methoxydimethyl-","Dube and Chvalovsky, 1974"
 33546-26-8,, C,8.6 ¡À 0.2,EI,"Silane,[4-(dimethylsilyl)phenyl]methoxydimethyl-","Dube and Chvalovsky, 1974"
 33546-28-0,, C,9.0 ¡À 0.2,EI,"Silane,[3-(dimethylsilyl)phenyl]trimethoxy-","Dube and Chvalovsky, 1974"
 5173-74-0,Vertical value, C,9.45 ¡À 0.02,PE,"4a(2H)-Naphthalenol,octahydro-8a-methyl-cis-","Brown, Marcinko, et al., 1979"
 19245-70-6,Vertical value, C,9.37 ¡À 0.02,PE,"Cyclohexanol,5-(1,1-dimethylethyl)-2-methylene-trans-","Brown, Marcinko, et al., 1979"
 19245-69-3,Vertical value, C,9.18 ¡À 0.02,PE,"Cyclohexanol,5-(1,1-dimethylethyl)-2-methylene-cis-","Brown, Marcinko, et al., 1979"
 71555-64-1,Vertical value, C,8.97 ¡À 0.02,PE,"Cyclohexene,3-(1,1-dimethylethyl)-6-methoxy-trans-","Brown, Marcinko, et al., 1979"
 14743-58-9,Vertical value; , C,8.45,PE,"Cyclopropanone, 2,3-bis(1,1-dimethylethyl)-trans-","Schafer, Schweig, et al., 1974"
 5173-73-9,Vertical value, C,9.41 ¡À 0.05,PE,"4a(2H)-Naphthalenol,octahydro-8a-methyl-trans-","Brown and Marcinko, 1978"
 71555-63-0,Vertical value, C,9.29 ¡À 0.03,PE,"Cyclohexene,3-(1,1-dimethylethyl)-6-methoxy-cis-","Brown, Marcinko, et al., 1979"
 68165-37-7,, C,8.74,PE,"4-Hexen-3-one,4-ethyl-2,2,5-trimethyl-","Masclet and Mouvier, 1978"
 13151-61-6,, C,8.65 ¡À 0.15,EI,Cycloundecene (Z),"Remane, Graefe, et al., 1972"
 94397-46-3,, C,8.15,CT,"Germane, dimethyl-phenyl-(trimethylstannyl)-","Sakurai, Ichinose, et al., 1984"
 13151-60-5,, C,8.73 ¡À 0.15,EI,Cycloundecene(E),"Remane, Graefe, et al., 1972"
 4683-94-7,, C,9.31 ¡À 0.006,EI,"trans-Decalin, 2a-methyl","Zaikin, Musaev, et al., 1978"
 14398-67-5,, C,9.26 ¡À 0.008,EI,"Naphthalene,decahydro-1-methyl-(1¦Á,4a¦Â,8a¦Á","Zaikin, Musaev, et al., 1978"
 4683-95-8,, C,9.27 ¡À 0.009,EI,"Naphthalene,decahydro-1-methyl-(1¦Á,4a¦Á,8a¦Â","Zaikin, Musaev, et al., 1978"
 14398-71-1,, C,9.32 ¡À 0.006,EI,"Naphthalene,decahydro-2-methyl-(2¦Á,4a¦Á,8a¦Â","Zaikin, Musaev, et al., 1978"
 13294-73-0,Vertical value, C,9.09 ¡À 0.02,PE,"Cyclohexane,1-(1,1-dimethylethyl)-4-methylene","Brown, Marcinko, et al., 1979"
 42066-39-7,LBLHLM, C,8.6,PE,"2,2,5,5-Tetramethyl-3,4-heptadiene","Elsevier, Vermeer, et al., 1985"
 22585-31-5,Vertical value; , C,8.55,PE,"1,2-Pentadiene, 3-(1,1-dimethylethyl)-4,4-dimethyl-","Brogli, Crandall, et al., 1973"
 3817-57-0,Vertical value, C,8.91,PE,Methylenecyclodecane,"Spanka and Rademacher, 1986"
 126223-54-9,, C,9.46,PI,"1,2-Dicarbadodecaborane(12), 1-nonyl-","Orlov, Pustobaev, et al., 1989"
 31704-09-3, , C,7.3,PE,"Silane, [(methylthio)methylidyne]tris[trimethyl-","Bock, Meuret, et al., 1990"
 124225-86-1,, C,7.38 ¡À 0.01,EI,"1,1,1,2,2,3,3,5,5,5-Decamethyl-1,2,3,5-tetrasilapentane","Pitt, Bursey, et al., 1970"
 62635-48-7,, C,8.05 ¡À 0.05,EI,"Urea,N-(2-chlorophenyl)-N'-(1,1-dimethylethyl)-","Baldwin, Loudon, et al., 1976"
 5469-45-4,LBLHLM, C,7.7,PE,¦Á-Acetamidocinnamic acid,"Ajo, Casarin, et al., 1984"
 42282-82-6,, C,8.9,EI,"2,4-Azetidinedione, 3-ethyl-3-phenyl-","Compernolle and DeSchryver, 1975"
 61759-55-5,Vertical value, C,8.3,PE,"Carbamic acid,1,3-butadienyl-phenyl ester,(E)-","Overman, Taylor, et al., 1978"
 62635-50-1,, C,7.75 ¡À 0.05,EI,"Thiourea,N-(2-chlorophenyl)-N'-(1,1-dimethylethyl)-","Baldwin, Loudon, et al., 1976"
 46185-83-5,LLK, C,8,PE,2-Ethoxyquinoline,"Pfister-Guillouzo, Guimon, et al., 1981"
 61759-58-8,Vertical value, C,~8.18,PE,"Carbamothioic acid,1,3-butadienyl-s-phenyl ester,(E)-","Overman, Taylor, et al., 1978"
 57015-27-7,LBLHLM, C,7.55,PE,"Cyclohepta[c]pyrrol-6(2H)-one,1,3-dimethyl-","Gleiter, Bischof, et al., 1984"
 13720-91-7,LLK, C,8.1,PE,4-Ethoxyquinoline,"Pfister-Guillouzo, Guimon, et al., 1981"
 88635-78-3,Vertical value; , C,8.9,PE,"Bicyclo[4.4.1]undeca-1,3,5,7,9-pentaene-2-sulfonyl chloride, 11,11-difluoro-","Andrea, Cerfontain, et al., 1984"
 19692-45-6,, C,8.60 ¡À 0.03,PI,"Benzene, 1-(chloromethyl)-4-(1,1-dimethylethyl)-","Ponomarev, Takhimova, et al., 1974"
 38580-79-9,, C,8.71 ¡À 0.03,PI,"1-Chloromethyl-3-(1,1-dimethylethyl)benzene","Ponomarev, Takhimova, et al., 1974"
 61346-80-3,Vertical value, C,7.84 ¡À 0.05,PE,"1,4-Methanonaphthalene-5-amine,1,4-dihydro-","Santiago, McAlduff, et al., 1978"
 35391-95-8,, C,7.60 ¡À 0.05,PE,"1,4-Methanonaphthalene-6-amine,1,4-dihydro-","Santiago, McAlduff, et al., 1978"
 55258-00-9,Vertical value, C,8.18 ¡À 0.05,PE,"Naphthalen-1,4-imine,1,4-dihydro-9-methyl-","Morishima, Yoshikawa, et al., 1975"
 17015-99-5,LLK, C,9.4,PE,"2-Chloro-3-methyl-1,4-naphthoquinone","Redchenko, Freimanis, et al., 1980"
 95734-76-2, , C,5.5,PE,"Zinc, methyl 1,4-di-tert-butyl-1,4-diazabutadiene","Louwen, Stufkens, et al., 1984"
 108696-12-4,Vertical value, C,7.64,PE,"Octahydroazocine,1-tert-butyl-","Spanka, Boese, et al., 1987"
 31951-84-5, , C,8.3,PE,"5,5-Dimethyl-2-phenoxy-1,3,2-dioxaphosphorinane, 2-sulfide","Edmundson, 1983"
 884-89-9,Vertical value, C,9,PE,"1,3,2-Dioxaphosphorinane, 5,5-dimethyl-2-phenoxy-, 2-oxide","Edmundson, 1983"
 21321-31-3,LLK, C,7.8,PE,"Tungsten, pentacarbonyl(triethylphosphine)-","Yarbrough and Hall, 1978"
 23306-43-6,LLK, C,8.1,PE,"Tungsten, pentacarbonyl(triethylphosphite-)-","Yarbrough and Hall, 1978"
 1271-43-8,RDSH, C,6.9 ¡À 0.1,EI,"Manganese,(¦Ç","Muller and Goser, 1968"
 19217-79-9,LLK, C,7.7,PE,"Molybdenum, pentacarbonyl(triethylphosphine)-","Yarbrough and Hall, 1978"
 15603-75-5,LLK, C,8,PE,"Molybdenum, pentacarbonyl(triethylphosphite-p-)-","Yarbrough and Hall, 1978"
 56660-54-9,Vertical value, C,8.2,PE,"Phosphine, dibutyl-2-propenyl-","Schmidt, Schweig, et al., 1975"
 4235-94-3,, C,9.1,CTS,6-Amino-9-cyclohexylpurine,"Van Der Helm, Christian, et al., 1973"
 2981-10-4,Vertical value; , C,7.54,PE,N-(1-Cyclohexen-1-yl)piperidine,"Muller, Previdoli, et al., 1981"
 16087-24-4,, C,6.73,EI,1-Dimethylamino-4-trimethylsilylbenzene,"Bock and Alt, 1970"
 62244-49-9,, C,7.45,EI,"Benzenamine,4-(methoxydimethylsilyl)-N,N-dimethyl-","Gey and Dube, 1976"
 56570-54-8,Vertical value; , C,8.03,PE,"5,5-Dimethyl-3-(n-propylamino)cyclohex-2-en-1-one","Pfister-Guillouzo, Geribaldi, et al., 1982"
 80555-73-3,Vertical value; , C,7.94,PE,"5,5-Dimethyl-3-(i-propylamino)cyclohex-2-en-1-one","Pfister-Guillouzo, Geribaldi, et al., 1982"
 22921-72-8,, C,8.59 ¡À 0.05,EI,"Benzene,[(5-bromopentyl)oxy]-","Schwarz, Petersen, et al., 1977"
 85219-14-3, , C,8.1,PE,Tricyclo[4.3.1.1,"Tombo, Ammann, et al., 1983"
 4096-20-2,LBLHLM, C,7.1,PE,N-Phenylpiperidine,"Rozeboom, Houk, et al., 1982"
 2386-26-7,Vertical value; , C,8.26,PE,"4-Acetyl-3,5-dimethyl-1H-pyrrole-2-carboxylic acid, ethyl ester","Cauletti, Giancaspro, et al., 1981"
 53783-12-3,Vertical value, C,6.65,PE,"2-Azapentalene, 1,3-bis(dimethylamino)-","Eckert-Maksic, Gleiter, et al., 1988"
 69642-59-7,LBLHLM, C,7,PE,"Benzenamine, N,N-dimethyl-4-[2-(methylsulfonyl)ethenyl]-","Cauletti, Furlani, et al., 1984"
 6314-22-3,Vertical value, C,8.23,PE,"5-Acetyl-2,4-dimethyl-1H-pyrrole-3-carboxylic acid, ethyl ester","Cauletti, Giancaspro, et al., 1981"
 20637-09-6,, C,7.9 ¡À 0.2,EI,"Benzenebutanoic acid, 4-amino-, methyl ester","Howe, Williams, et al., 1969"
 4859-06-7,Vertical value, C,7.63,PE,"Imidazolidine,2-(2,6-dimethylphenylimino)-","de Jong and Van Dam, 1980"
 17469-89-5, , C,7.7,PE,"L-Phenylalanine, N,N-dimethyl-","Campbell, Marzluff, et al., 1994"
 3376-24-7,Vertical value, C,7.69,PE,"2-Propanamine, 2-methyl-N-(phenylmethylene)-, N-oxide","Houk, Caramella, et al., 1977"
 18835-47-7,Vertical value, C,8.8,PE,"Acetamide,N-(2,6-dimethylphenyl)-N-methyl-","Nakagaki, Kobayashi, et al., 1980"
 41106-03-0, , C,8.08,PE,"Methanamine,N-[(2,4,6-trimethylphenyl)methylene]-N-oxide","Houk, Bimanand, et al., 1977"
 21321-30-2,LLK, C,7.6,PE,"Chromium, pentacarbonyl-(triethylphosphine)-","Yarbrough and Hall, 1978"
 40649-26-1,, C,7.45,CTS,Phenylcyclopentylamine,"Briegleb and Czekalla, 1959"
 41378-30-7,LBLHLM, C,6.8,PE,N-(2-Methylphenyl)pyrrolidine,"Rozeboom, Houk, et al., 1982"
 18461-32-0,LLK, C,7.9,PE,"Chromium, pentacarbonyl(triethylphosphite-p)-","Yarbrough and Hall, 1978"
 81506-10-7,Vertical value; , C,7.48 ¡À 0.06,PE,"N-(2,4-Dimethylphenyl)azetidine","Rozeboom, Houk, et al., 1982"
 66467-05-8, , C,6.8,PE,"Iridium, (2,4-pentanedionato-o,o'-)-bis¦Ç","Van Dam, Terpstra, et al., 1980"