CAS,Comment,Formula,IE,Method,Name,Refer
 591-48-0,LLK, C,8.89 ¡À 0.01,PE,"Cyclohexene, 3-methyl-","Rang, Paldoia, et al., 1974"
 2146-38-5,LLK, C,8.53 ¡À 0.01,PE,1-Ethylcyclopentene,"Rang, Paldoia, et al., 1974"
 628-92-2,LLK, C,9.05 ¡À 0.15,EI,Cycloheptene,"Remane, Graefe, et al., 1972"
 53246-19-8,Vertical value, C,7.27,PE,"1,2,4,3,5-Triazadiborolidine,1,3,4,5-tetramethyl-2-(trimethylstannyl)-","Kroner, Nolle, et al., 1975"
 279-23-2,RDSH, C,9.74,PE,Norbornane,"Demeo and Yencha, 1970"
 1192-37-6,LBLHLM, C,8.8,PE,"Cyclohexane, methylene-","Lambert, Xue, et al., 1986"
 694-35-9,LLK, C,8.88 ¡À 0.01,PE,"Cyclopentene, 3-ethyl-","Rang, Paldoia, et al., 1974"
 628-71-7,LLK, C,10.044 ¡À 0.005,PE,1-Heptyne,"Carlier, Dubois, et al., 1975"
 53246-18-7,Vertical value, C,7.56,PE,"1,2,4,3,5-Triazadiborolidine, 1,3,4,5-tetramethyl-2-(trimethylsilyl)-","Kroner, Nolle, et al., 1975"
 53323-98-1,Vertical value, C,7.48,PE,"1,2,4,3,5-Triazadiborolidine,1,2,3,5-tetramethyl-4-(trimethylsilyl)-","Kroner, Nolle, et al., 1975"
 53246-13-2,Vertical value, C,7.28,PE,"1,2,4,3,5-Triazadiborolidine,1,2,3,5-tetramethyl-4-(trimethylstannyl)-","Kroner, Nolle, et al., 1975"
 2146-37-4,, C,8.51,PE,"Cyclopentane, ethylidene-","Demeo and Yencha, 1970"
 286-08-8,RDSH, C,9.03 ¡À 0.02,EI,Bicyclo[4.1.0]heptane,"Winters and Collins, 1968"
 2586-89-2,LLK, C,9.260 ¡À 0.005,PE,3-Heptyne,"Carlier, Dubois, et al., 1975"
 1119-65-9,LBLHLM, C,9.18,PI,2-Heptyne,"Orlov, Boganov, et al., 1985"
 53566-37-3,, C,9.320 ¡À 0.005,PE,"2-Hexyne, 5-methyl-","Carlier, Dubois, et al., 1975"
 2203-80-7,, C,10.015 ¡À 0.005,PE,"1-Hexyne, 5-methyl-","Carlier, Dubois, et al., 1975"
 999-78-0,LLK, C,9.276 ¡À 0.010,PE,"2-Pentyne, 4,4-dimethyl-","Carlier, Dubois, et al., 1975"
 3070-53-9,Vertical value, C,9.52 ¡À 0.02,PE,"1,6-Heptadiene","Bunzli, Burak, et al., 1973"
 628-72-8,Vertical value, C,8.17,PE,"2,4-Heptadiene","Masclet, Mouvier, et al., 1981"
 1000-87-9,Vertical value, C,8.53,PE,"2,3-Pentadiene, 2,4-dimethyl-","Hill, Ward, et al., 1979"
 2384-92-1,LLK, C,8.47,PE,"1,trans-3-heptadiene","Masclet, Mouvier, et al., 1981"
 763-88-2,Vertical value, C,8.7,PE,"1,4-Hexadiene, 5-methyl-","Eaton and Traylor, 1974"
 14145-44-9,Vertical value; , C,8.65,PE,"1,3-Butadiene, 2-ethyl-3-methyl-","Masclet, Mouvier, et al., 1981"
 26385-95-5, , C,8.2,PE,Tetramethylcyclopropene,"Plemenkov, Villem, et al., 1981"
 3422-07-9,Vertical value, C,9.03,PE,"Cyclopropane, 1-methyl-1-isopropenyl-","Plemenkov, Zverev, et al., 1989"
 1625-49-6,Vertical value, C,8.28,PE,"(E)-1,3-Pentadiene, 2,3-dimethyl-","Masclet, Mouvier, et al., 1981"
 1112-35-2,Vertical value, C,9.55,PE,"1,4-Pentadiene, 3,3-dimethyl-","Schweig, Weidner, et al., 1973"
 32763-70-5,Vertical value; , C,8.47,PE,"trans-5-Methyl-1,3-hexadiene","Masclet, Mouvier, et al., 1981"
 3354-42-5,LLK, C,7.9,PE,"3H-1,2-Benzodithiole-3-thione","Gonbeau, Guimon, et al., 1975"
 934-36-1,Vertical value, C,8.14,PE,"1,3-Benzodithiole-2-thione","Guimon, Pfister-Guillouzo, et al., 1976"
 2117-28-4,Vertical value; , C,9.5,PE,"Silane, methylenebis[trimethyl-","Hosomi and Traylor, 1975"
 18517-13-0, , C,8.85 ¡À 0.05,EI,"Rhodium, dicarbonyl(1,1,1-trifluoro-2,4-pentanedionato)-","Bonati, Distefano, et al., 1971"
 122-04-3,, C,10.66 ¡À 0.01,EI,4-Nitrobenzoyl chloride,"Foffani, Pignataro, et al., 1964"
 2909-38-8,Vertical value, C,9.0 ¡À 0.1,PE,"Benzene, 1-chloro-3-isocyanato-","Neijzen and DeLange, 1980"
 15500-74-0,Vertical value, C,8.65,PE,"Benzonitrile,4-chloro-N-oxide","Houk, Caramella, et al., 1977"
 104-12-1,Vertical value, C,8.8 ¡À 0.1,PE,"Benzene, 1-chloro-4-isocyanato-","Neijzen and DeLange, 1980"
 1201-02-1,Vertical value, C,8.65,PE,"Benzenamine, 2,3,4,5,6-pentafluoro-N-methyl-","Furin, Sultanov, et al., 1987"
 394-47-8,LLK, C,9.78,PE,"Benzonitrile, 2-fluoro-","Palmer, Moyes, et al., 1980"
 403-54-3,LLK, C,9.79,PE,"Benzonitrile, 3-fluoro-","Palmer, Moyes, et al., 1980"
 1194-02-1,RDSH, C,9.99 ¡À 0.05,EI,"Benzonitrile, 4-fluoro-","Buchs, 1970"
 5230-78-4,Vertical value, C,9.16 ¡À 0.02,PE,"2,3,5,6-Tetrafluorotoluene","Maier, Marthaler, et al., 1980"
 402-44-8,Vertical value, C,9.98,PE,"Benzene, 1-fluoro-4-(trifluoromethyl)-","Cabelli, Cowley, et al., 1982"
 18238-55-6,Vertical value, C,10.1,PE,"Bicyclo[4.1.0]hepta-1,3,5-triene, 7,7-difluoro-","Lecoultre, Heilbronner, et al., 1988"
 14024-04-5,Vertical value, C,8.75,PE,"Iridium, dicarbonyl(1,1,1-trifluoro-2,4-pentanedionato-o,o')-","Van Dam, Terpstra, et al., 1980"
 766-84-7,, C,9.93 ¡À 0.04,EI,"Benzonitrile, 3-chloro-","Buchs, 1970"
 623-03-0,, C,9.94 ¡À 0.05,EI,"Benzonitrile, 4-chloro-","Buchs, 1970"
 98-56-6,RDSH, C,9.8 ¡À 0.1,EI,"Benzene, 1-chloro-4-(trifluoromethyl)-","Brown, 1970"
 98-15-7,RDSH, C,9.8 ¡À 0.1,EI,"Benzene, 1-chloro-3-(trifluoromethyl)-","Brown, 1970"
 122-01-0,, C,9.58 ¡À 0.03,EI,"Benzoyl chloride, 4-chloro-","Foffani, Pignataro, et al., 1964"
 88-16-4,Vertical value, C,9.47,PE,"Benzene, 1-chloro-2-(trifluoromethyl)-","Gounelle, Jullien, et al., 1975"
 94890-74-1,Vertical value, C,7.73,PE,"Rhodium, ¦Ç","Lichtenberger and Renshaw, 1991"
 873-32-5,, C,10.26 ¡À 0.06,EI,"Benzonitrile, 2-chloro-","Buchs, 1970"
 4842-93-7,Vertical value, C,8.19,PE,"(E)-1,3-Hexadiene, 4-methyl-","Masclet, Mouvier, et al., 1981"
 3058-39-7,, C,9.13,PE,"Benzonitrile, 4-iodo-","Behan, Johnstone, et al., 1976"
 64323-57-5,Vertical value, C,8.38,PE,"1,3,4,6,8-Pentaazacycl[3.3.3]azine","Rossman, Leonard, et al., 1985"
 54499-06-8,Vertical value, C,8.52,PE,"1,3,4,6,7-Pentaazacycl[3.3.3]azine","Rossman, Leonard, et al., 1985"
 75862-04-3,Vertical value, C,8.19,PE,"Rhodium, ¦Ç","Lichtenberger and Renshaw, 1991"
 619-24-9,RDSH, C,10.57 ¡À 0.04,EI,"Benzonitrile, 3-nitro-","Buchs, 1970"
 4664-00-0,Vertical value, C,10.0 ¡À 0.1,PE,Quinolinimide,"Distefano, Jones, et al., 1978"
 612-24-8,RDSH, C,10.52 ¡À 0.05,EI,"Benzonitrile, 2-nitro-","Buchs, 1970"
 619-72-7,RDSH, C,10.59 ¡À 0.05,EI,"Benzonitrile, 4-nitro-","Buchs, 1970"
 2574-03-0,Vertical value, C,~9.5,PE,"Benzonitrile,4-nitro-N-oxide","Houk, Caramella, et al., 1977"
 99405-17-1,, C,8.55 ¡À 0.05,PE,"Methanethiol, bis(trimethylsilyl)-","Block, Yencha, et al., 1988"
 12192-97-1,LBLHLM, C,7.32 ¡À 0.02,PE,(¦Ç5-cyclopentadienyl)dicarbonylrhodium,"Lichtenberger, Calabro, et al., 1984"
 18063-03-1,Vertical value, C,9.7,PE,"2,6-Difluorobenzamide","Petrachenko, Vovna, et al., 1992"
 1194-65-6,RDSH, C,10.09 ¡À 0.05,EI,"Benzonitrile, 2,6-dichloro-","Buchs, 1970"
 771-56-2,LLK, C,9.4,PE,"Benzene, pentafluoromethyl-","Maier, Marthaler, et al., 1980"
 389-40-2,LLK, C,9.10 ¡À 0.02,PE,"Benzene, pentafluoromethoxy-","Maier and Turner, 1973"
 653-37-2,Vertical value; , C,10.35,PE,Pentafluorobenzaldehyde,"Furin, Zibarev, et al., 1989"
 455-32-3,LBLHLM, C,9.4,PE,Benzoyl fluoride,"Peel and Von Nagy-Felsobuki, 1987"
 12275-47-7,, C,8.24,EI,"Manganese,dicarbonyl(¦Ç","Muller, Fenderl, et al., 1971"
 455-38-9,LLK, C,9.9 ¡À 0.2,EI,"Benzoic acid, 3-fluoro-","Benoit, 1973"
 456-22-4,LLK, C,9.9 ¡À 0.2,EI,"Benzoic acid, 4-fluoro-","Benoit, 1973"
 33307-29-8, , C,8.1,PE,"Rhenium, tetracarbonyl(¦Ç","Bohm, Gleiter, et al., 1983"
 456-55-3,Vertical value, C,10,PE,Phenyl trifluoromethyl ether,"Baker, May, et al., 1968"
 1744-45-2,Vertical value, C,9.82,PE,"2,3,5,6-Tetrafluoro-N-hydroxybenzamide","Petrachenko, Vovna, et al., 1992"
 459-57-4,Vertical value; , C,9.6,PE,"Benzaldehyde, 4-fluoro-","Gal, Geribaldi, et al., 1985"
 98-08-8,LBLHLM, C,9.7,PE,"Benzene, (trifluoromethyl)-","Peel and Von Nagy-Felsobuki, 1987"
 14049-69-5, , C,8.85 ¡À 0.05,EI,"Iridium, dicarbonyl(1,1,1,5,5,5-hexafluoro-2,4-pentanedionato-o,o')-, (sp-4-2)-","Bonati, Distefano, et al., 1971"
 18517-12-9,, C,9.2 ¡À 0.1,EI,"Rhodium, dicarbonyl(1,1,1,5,5,5-hexafluoro-2,4-pentanedionato-O,O')-, (SP-4-2)-","Bonati, Distefano, et al., 1971"
 72282-40-7, , C,7.6,PE,"Triosmium, bis(¦Ì","Griewe and Hall, 1988"
 72282-41-8, , C,7.5,PE,"Triosmium, bis(¦Ì","Griewe and Hall, 1988"
 15602-77-4,Vertical value, C,8.9,PE,"Iron, tetracarbonyl(2-propenenitrile)-","Flamini, Semprini, et al., 1978"
 931-54-4,LLK, C,9.4,PE,phenyl isocyanide,"Young and Cheng, 1976"
 100-47-0,LL, C,9.7316 ¡À 0.0002,TE,Benzonitrile,"Araki and Sato, 1996"
 149-30-4,, C,7.99,PE,2-Mercaptobenzothiazole,"Guimon, Arbelot, et al., 1975"
 34733-85-2,, C,9.1,PE,"5-Phenyl-1,2,3,4-thiatriazole","Bender, Carnovale, et al., 1988"
 103-72-0,RDSH, C,8.520 ¡À 0.005,PI,"Benzene, isothiocyanato-","Watanabe, Nakayama, et al., 1962"
 98-88-4,LBLHLM, C,9.54,PE,Benzoyl chloride,"Gan, Livett, et al., 1984"
 118-96-7,LLK, C,10.59 ¡À 0.04,PI,Trinitrotoluene,"Potapov, Kardash, et al., 1972"
 95-16-9,RDSH, C,8.72 ¡À 0.05,PE,Benzothiazole,"Eland, 1969"
 6639-30-1,, C,8.8,PE,"2,4,5-Trichlorotoluene","Fujisawa, Oonishi, et al., 1992"
 98-07-7,Vertical value, C,9.6,PE,"Benzene, (trichloromethyl)-","Zverev and Ermolaeva, 1981"
 2077-46-5,, C,8.85,PE,"Benzene, 1,2,4-trichloro-3-methyl-","Fujisawa, Oonishi, et al., 1992"
 12275-46-6,LLK, C,8.12,EI,"Manganese, dicarbonyl(¦Ç","Muller, Fenderl, et al., 1971"
 104-88-1,RDSH, C,9.61 ¡À 0.01,EI,"Benzaldehyde, 4-chloro-","Foffani, Pignataro, et al., 1964"
 29110-74-5,Vertical value, C,8.41,PE,3-chloro-1H-indazole,"Kovac, Klasinc, et al., 1980"
 65338-63-8,Vertical value, C,7.74,PE,Methyl chloromethyl sulfide chromium pentacarbonyl,"Weiner and Lattman, 1978"
 53666-48-1,, C,9.0 ¡À 0.1,EI,"Formamide,N-(2-chloro-5-nitrophenyl)-","Kuschel and Grutzmacher, 1974"
 16135-32-3,, C,9.3 ¡À 0.1,EI,"Formamide,N-(2-chloro-4-nitrophenyl)-","Kuschel and Grutzmacher, 1974"
 2154-54-3,T = 0K; , C,7.2420 ¡À 0.0006,TE,"Benzyl radical, ¦Á,¦Á-d2","Eiden, Weinhold, et al., 1991"
 873-62-1,RDSH, C,9.39 ¡À 0.05,EI,"Benzonitrile, 3-hydroxy-","Buchs, 1970"
 873-67-6,Vertical value; , C,8.96 ¡À 0.02,PE,"Benzonitrile, N-oxide","Bastide, Maier, et al., 1976"
 103-71-9,LLK, C,8.8,PE,"Benzene, isocyanato-","Kobayashi and Nagakura, 1975"
 42715-25-3,, C,6.92 ¡À 0.05,EI,"Thiazolo[3,2-a]pyridinium,3-hydroxy-,hydroxide,inner salt","Fjeldstad and Undheim, 1973"
 2382-96-9,, C,8.14,PE,"2-Mercapto-1,3-benzoxazole","Guimon, Arbelot, et al., 1975"
 62-23-7,LLK, C,10.2 ¡À 0.2,EI,"Benzoic acid, 4-nitro-","Benoit, 1973"
 35143-55-6,, C,8.70 ¡À 0.05,EI,"Thiazolo[3,2-a]pyridinium,3,8-dihydroxy-,hydroxide,inner salt","Fjeldstad and Undheim, 1973"
 121-92-6,LLK, C,10.3 ¡À 0.2,EI,"Benzoic acid, 3-nitro-","Benoit, 1973"
 12107-04-9,Vertical value, C,8,PE,Cyclopentadienylirondicarbonylchloride,"Lichtenberger and Fenske, 1976"
 555-16-8,LBLHLM, C,10.27 ¡À 0.01,PE,"Benzaldehyde, 4-nitro-","Gal, Geribaldi, et al., 1985"
 699-98-9,Vertical value; , C,10.5 ¡À 0.1,PE,"2,3-Pyridinedicarboxylic anhydride","Bigotto, Galasso, et al., 1978"
 767-00-0,RDSH, C,9.40 ¡À 0.05,EI,"Benzonitrile, 4-hydroxy-","Buchs, 1970"
 118436-77-4,, C,7.1,PE,"1,2,3,5-Dithiadiazolyl radical, 4-phenyl-","Boere, Oakley, et al., 1989"
 69094-37-7,Vertical value, C,10.05 ¡À 0.05,PE,"Thieno[3,4-b]pyridine-5,7-DIONe","Bigotto, Galasso, et al., 1978"
 33726-04-4,Vertical value, C,7.61,PE,"Chromium, pentacarbonyl(isocyanomethane)-","Higginson, Lloyd, et al., 1974"
 12128-13-1,, C,8.1 ¡À 0.2,EI,Cyclopentadienylmolybdenum dicarbonyl nitrosyl,"Winters and Kiser, 1965"
 12078-25-0,LBLHLM, C,7.35,PE,"Cobalt, dicarbonyl(¦Ç5-2,4-cyclopentadien-1-yl)-","Lichtenberger, Calabro, et al., 1984"
 76684-21-4, , C,8.5,PE,"Phosphine, phenylmethylidyne-","Solouki, Bock, et al., 1982"
 33039-25-7,, C,7.77,PE,Aminocyclobutadieneiron tricarbonyl,"Dewar and Worley, 1969"
 12078-20-5,Vertical value, C,7.93,PE,"Iron, bromodicarbonyl(¦Ç","Lichtenberger and Fenske, 1976"
 12078-28-3,Vertical value, C,7.77,PE,Cyclopentadienyliron dicarboxyl iodide,"Lichtenberger and Fenske, 1976"
 33307-28-7,LBLHLM, C,7.7,PE,"Manganese, tetracarbonyl(¦Ç","Bohm, Gleiter, et al., 1983"
 1122-91-4,Vertical value; , C,9.22,PE,"Benzaldehyde, 4-bromo-","Gal, Geribaldi, et al., 1985"
 585-76-2,, C,9.7 ¡À 0.2,EI,"Benzoic acid, 3-bromo-","Benoit, 1973"
 618-32-6,LBLHLM, C,9.2,PE,Benzoyl bromide,"Gan, Livett, et al., 1984"
 36312-04-6,LLK, C,8.5 ¡À 0.1,EI,"Chromium,dicarbonyl(¦Ç","Greenhough, Kolthammer, et al., 1979"
 586-76-5,LLK, C,9.7 ¡À 0.2,EI,"Benzoic acid, 4-bromo-","Benoit, 1973"
 66539-91-1,, C,7.8 ¡À 0.1,EI,"Chromium,dicarbonyl(¦Ç","Greenhough, Kolthammer, et al., 1979"
 22852-50-2,RDSH, C,7.35,EI,"Chromium, (1-aminoethylidene)pentacarbonyl-","Muller and Connor, 1969"
 32841-54-6,LLK, C,8.01,EI,"Manganese,dicarbonyl(¦Ç","Muller, Fenderl, et al., 1971"
 10560-39-1, , C,7.4,PE,"1,3,5-tri-tert-butylhexahydro-1,3,5-triazine","Beck, Hunig, et al., 1986"
 5756-67-2,, C,9.8 ¡À 0.2,EI,"2-Perfluoropropyl-5-phenyl-1,3,4-oxadiazole","Cotter, Soc. 1965"
 85538-51-8, , C,7.3,PE,"Pyrrolidine, 1-tricyclo[4.3.1.1","Tombo, Ammann, et al., 1983"
 3007-72-5,, C,7.5,CTS,N-Nonylaniline,"Briegleb and Czekalla, 1959"
 18461-46-6,, C,8.20 ¡À 0.05,EI,Dichloro(phenyl)phosphinetungsten pentacarbonyl,"Distefano, Innorta, et al., 1968"
 21485-20-1,, C,8.03 ¡À 0.05,EI,Dichloro(phenyl)phosphinemolybdenum pentacarbonyl,"Distefano, Innorta, et al., 1968"
 14691-89-5,, C,7.40 ¡À 0.05,EI,"4-Acetamido-2,2,6,6-tetramethylpiperidinyloxy","Hvistendahl and Undheim, 1971"
 73320-99-7,Vertical value, C,7.71,PE,"9-Azabicyclo[3.3.1]nonane,9-propyl-","Nelsen, Kessel, et al., 1980"
 45980-26-5,Vertical value, C,7.97 ¡À 0.015,PE,"1-Azabicyclo[2.2.2]octane,4-(1,1-dimethylethyl)-","Bieri and Heilbronner, 1974"
 3319-01-5,Vertical value; , C,7.93 ¡À 0.03,PE,"Piperidine, 1-cyclohexyl-","Colonna, Distefano, et al., 1975"
 64776-33-6,Vertical value, C,7.68,PE,"9-Azabicyclo[3.3.1]nonane,9-(1-methylethyl)-","Nelsen, Kessel, et al., 1980"
 57839-84-6,Vertical value, C,8.03,PE,1-Methyl-6-methylenedecahydroazecine,"Spanka and Rademacher, 1986"
 6932-50-9,Vertical value, C,8.7,PE,"1-Azacycloundecan-2-one, 1-methyl-","Treschanke and Rademacher, 1985"
 108696-10-2,Vertical value, C,7.88,PE,"Hexahydroazocine-5-one,1-tert-butyl-","Spanka, Boese, et al., 1987"
 71017-52-2,Vertical value, C,8.3,PE,"2-Azabicyclo[3.2.1]octane,2-(1,1-dimethylethyl)-","Barraclough, Bilgic, et al., 1979"
 35505-52-3,Vertical value, C,8.50 ¡À 0.05,PE,"Pyridine,2,6-bis(trimethylsilyl)-","Heilbronner, Hornung, et al., 1972"
 35505-51-2,Vertical value, C,8.65 ¡À 0.05,PE,"Pyridine,2,5-bis(trimethylsilyl)-","Heilbronner, Hornung, et al., 1972"
 56660-53-8,Vertical value, C,8.09,PE,"Phosphine,dibutyl(phenylmethyl)-","Schmidt, Schweig, et al., 1975"
 20836-42-4,Vertical value, C,7.94,PE,"Triethanolamine, 3TMS derivative","Brodskaya, Voronkov, et al., 1987"
 18433-88-0, , C,8.2,PE,¦Ì,"Granozzi, Tondello, et al., 1982"
 19372-46-4,, C,7.7 ¡À 0.05,EI,"Iron, tricarbonylbis(hexamethylphosphorous triamide-P)-","Saalfeld, DeCorpo, et al., 1972"
 34176-91-5,, C,8.9 ¡À 0.1,EI,"Benzonitrile, m-phenethyl-","McLafferty, Wachs, et al., 1970"
 5756-55-8,, C,9.9 ¡À 0.1,EI,"2-Perfluoroheptyl-5-phenyl-1,3,4-oxadiazole","Cotter, Soc. 1965"
 14284-89-0,LLK, C,7.58 ¡À 0.05,EI,Manganic acetylacetonate,"Westmore, Reimer, et al., 1981"
 13476-99-8,LLK, C,7.58 ¡À 0.05,EI,Vanadium(III) acetylacetonate,"Westmore, Reimer, et al., 1981"
 14284-96-9,LLK, C,6.92 ¡À 0.05,EI,"Titanium, tris(2,4-pentanedionato-O,O')-","Westmore, Reimer, et al., 1981"
 14284-92-5,, C,7.34 ¡À 0.01,EI,"Rhodium, tris(2,4-pentanedionato-O,O')-, (OC-6-11)-","Bursey and Rogerson, 1971"
 2207-41-2,, C,7.49 ¡À 0.03,PI,10-Ethyl-9-hydro-9-oxoacridine,"Potapov, Filyugina, et al., 1968"
 69454-55-3,Vertical value, C,7.36 ¡À 0.04,PE,"1H-Phenalen-1-one,9-dimethylamino-","Carnovale, Gan, et al., 1980"
 14683-96-6,, C,8.34,CTS,2-Fluorenylacetic acid amide,"Slifkin and Allison, 1967"
 14284-94-7,, C,7.46 ¡À 0.05,EI,"tris(pentane-2,4-dionato-O,O')scandium","Westmore, Reimer, et al., 1981"
 14024-18-1,LLK, C,7.6 ¡À 0.2,PE,Ferric tris(acetylacetonate),"Westmore, Reimer, et al., 1981"
 13985-77-8,RDSH, C,8.22 ¡À 0.05,EI,"Manganese, phenyl pentacarbonyl","Junk, Preston, et al., 1970"
 21494-34-8,, C,7.64 ¡À 0.05,EI,Triisopropylphosphite(p)cobalt dicarbonyl nitrosyl,"Distefano, Innorta, et al., 1968"
 13963-57-0,LL, C,7.5,PE,Aluminum tris(acetylacetonate),"Akopyan, Vovna, et al., 1990"
 21679-31-2,LLK, C,7.0 ¡À 0.2,PE,Chromic acetylacetonate,"Westmore, Reimer, et al., 1981"
 1210-12-4,LBLHLM, C,7.8,PE,9-Anthracenecarbonitrile,"Klasinc, Kovac, et al., 1983"
 32002-92-9,, C,6.27 ¡À 0.05,EI,"Thiazolo[3,2-a]pyridinium, 8-(acetyloxy)-3-hydroxy-2-phenyl-, hydroxide, inner salt","Fjeldstad and Undheim, 1973"
 142730-48-1,Vertical value, C,7.64,PE,"Coumarin, 3-formyl-4-methyl-7-(N,N-diethyl amino)-","Redchenko, Safronov, et al., 1992"
 42299-62-7,, C,8.13 ¡À 0.05,EI,"Indeno[1,2-b]azirin-6(1H)-one,1a,6a-dihydro-1-phenyl-","Hansen and Undheim, 1975"
 56359-29-6,, C,7.10 ¡À 0.05,EI,"Isoquinolinium,4-hydroxy-2-phenyl-hydroxide,inner salt","Hansen and Undheim, 1975"
 59804-88-5,, C,7.2,CTS,"Pyridinium,3-(1,3-dihydro-1,3-dioxo-2H-inden-2-yl)-1-methyl-hydroxide,inner salt","Kampars and Neilands, 1975"
 59804-81-8,, C,7.35,CTS,"2-Methylpyridinium, 1,3-dihydro-1,3-dioxo-2H-inden-2-ylide","Kampars and Neilands, 1975"
 59804-82-9,, C,7.55,CTS,"3-Methylppyridinium 1,3-dihydro-1,3-dioxo-2H-inden-2-ylide","Kampars and Neilands, 1975"
 612-96-4,, C,8.1,PE,"Quinoline, 2-phenyl-","Schafer, Schweig, et al., 1973"
 21533-76-6,Vertical value, C,6.37,PE,"Cyclopenta[ij]pyrido[2,1,6-de]quinolizine,3-methyl-","Palmer, Leaver, et al., 1977"
 51647-34-8,Vertical value, C,8.03,PE,16-Azatricyclo[9.2.2.1,"Reingold, Schmidt, et al., 1979"
 51625-14-0,, C,8.29 ¡À 0.03,PI,"1-Chloromethyl-3,5-bis(1,1-dimethylethyl)benzene","Ponomarev, Takhimova, et al., 1974"
 85523-08-6, , C,6.8,PE,"Pyrrolidine, 1-tricyclo[4.3.1.1","Tombo, Ammann, et al., 1983"
 72866-42-3,Vertical value, C,6.4,PE,"2-Azapentalene, 1,3-bis(dimethylamino)-5-tert-butyl-","Eckert-Maksic, Gleiter, et al., 1988"
 54824-83-8, , C,8.01,PE,"2,8,9-Trioxa-5-aza-1-silabicyclo[3.3.3]undecane, 3,7,10-trimethyl-1-phenyl-","Peel and Dianxum, 1988"
 102-05-6,, C,7.85,PE,Dibemethine,"Bodor, Dewar, et al., 1970"
 39768-04-2,, C,7.65,PE,"Phosphinoline,2-phenyl-","Schafer, Schweig, et al., 1973"
 1295-20-1,RDSH, C,7.72 ¡À 0.09,EI,"tris(¦Ç5-cyclopenta-2,5-dien-1-yl)ytterbium","Thomas and Hayes, 1970"
 39333-58-9,, C,6.5 ¡À 0.1,EI,Tris(cyclopentadienyl)titanium,"Muller, 1969"
 1298-55-1,, C,8.0 ¡À 0.1,EI,"tris(¦Ç5-cyclopenta-2,4-dien-1-yl)samarium","Thomas and Hayes, 1970"
 1272-26-0,RDSH, C,7.4 ¡À 0.1,EI,"tris(¦Ç5-2,4-cyclopentadien-1-yl)thulium","Muller, 1969"
 12715-68-3,, C,7.5 ¡À 0.2,EI,Tris(cyclopentadienyl)uranium fluoride,"Muller, 1969"
 1284-82-8,Vertical value, C,7.85,PE,"Thorium,chlorotris(¦Ç","Fragala, Ciliberto, et al., 1976"
 1284-81-7,Vertical value, C,6.9,PE,"Uranium,chlorotris(¦Ç","Fragala, Ciliberto, et al., 1976"
 58336-35-9,Vertical value, C,7.18,PE,"2,3,6,7-tetrahydro-1H,5H,11H-[1]benzopyrano[6,7,8-ij]quinolizin-11-one","Redchenko, Safronov, et al., 1992"
 41927-14-4,, C,7.88,CTS,"Acetamide,N-[4-(phenylmethoxy)phenyl]-","Weschke, Timpe, et al., 1979"
 72036-56-7,Vertical value; , C,9.2,PE,"5,5-Dimethyl-3-(4-cyanophenyl)-cyclohex-2-en-1-one","Pfister-Guillouzo, Geribaldi, et al., 1982"
 530-44-9,, C,7.50 ¡À 0.05,PI,"Methanone, [4-(dimethylamino)phenyl]phenyl-","Potapov, Kardash, et al., 1972"
 1484-09-9,, C,7.4,CTS,"9H-Carbazole, 9-(1-methylethyl)-","Klopffer, 1969"
 3096-95-5,Vertical value, C,8,PE,"Benzenamine,2,6-dimethyl-N-(phenylmethylene)-","Akaba, Tokumaru, et al., 1980"
 42082-72-4,Vertical value, C,8.05,PE,16-Azatricyclo[9.2.2.1,"Reingold, Schmidt, et al., 1979"
 33629-97-9,Vertical value, C,8,PE,"Benzenamine,2-methyl-N-[(3-methylphenyl)methylene]-","Akaba, Tokumaru, et al., 1980"
 92013-89-3,LBLHLM, C,7.1,PE,4-(Dimethylamino)fluorene,"Gleiter, Schafer, et al., 1984"
 14354-50-8,Vertical value, C,9.2,PE,"Manganese,tris(1,1,1,5,5,5-hexafluoro-2,4-pentanedionato-o,o')-","Evans, Hamnett, et al., 1972"
 19648-92-1,Vertical value; , C,10.19 ¡À 0.07,PE,"Gallium,tris(1,1,1,5,5,5-hexafluoro-2,4-pentanedionato-o,o')-","Evans, Hamnett, et al., 1972"
 37877-95-5,Vertical value, C,8.2,PE,5-Azatricyclo[8.2.2.2,"Kovac, Allan, et al., 1980"