CAS,Comment,Formula,IE,Method,Name,Refer
 13587-50-3,, DH,10.1 ¡À 0.2,EI,Phosphine-d,"Wada and Kiser, 1964"
 12031-65-1,, LiNiO,10.8 ¡À 0.5,EI,Lithium nickel dioxide,"Zmbov, Ficalora, et al., 1968"
 16873-17-9,LBLHLM, D,13.603,S,Deuterium,"Kelly, 1987"
 135371-67-4,, Hg,8.22 ¡À 0.08,EI,Mercury undecamer,"Cabaud, Hoareau, et al., 1980"
 135371-66-3,, Hg,8.25 ¡À 0.08,EI,Mercury decamer,"Cabaud, Hoareau, et al., 1980"
 135401-95-5,, Hg,8.25 ¡À 0.08,EI,Mercury nonamer,"Cabaud, Hoareau, et al., 1980"
 135401-93-3,, Hg,8.50 ¡À 0.08,EI,Mercury hexamer,"Cabaud, Hoareau, et al., 1980"
 11062-46-7,, Hg,8.60 ¡À 0.08,EI,Mercury pentamer,"Cabaud, Hoareau, et al., 1980"
 11062-38-7,, Hg,8.65 ¡À 0.08,EI,Mercury tetramer,"Cabaud, Hoareau, et al., 1980"
 135401-94-4,, Hg,8.35 ¡À 0.08,EI,Mercury heptamer,"Cabaud, Hoareau, et al., 1980"
 135371-65-2,, Hg,8.28 ¡À 0.08,EI,Mercury octamer,"Cabaud, Hoareau, et al., 1980"
 14452-59-6,LL, Li,4.73 ¡À 0.05,PI,Lithium dimer,"Dugourd, Rayane, et al., 1992"
 11062-37-6,, Hg,8.90 ¡À 0.08,EI,Mercury trimer,"Cabaud, Hoareau, et al., 1980"
 12031-80-0,LLK, Li,7.9 ¡À 0.2,EI,dilithium peroxide,"Wu, Kudo, et al., 1979"
 56095-11-5,, Li,4.1 ¡À 0.1,PI,Dilithium sodium,"Kappes and Schumacher, 1985"
 12057-24-8,LBLHLM, Li,6,EI,dilithium oxide,"Ikeda, Tamaki, et al., 1982"
 7439-97-6,LL, Hg,10.4375,EVAL,mercury,"Lide, 1992"
 12372-51-9,, LiSb,5.8,EI,"Antimony, compound with lithium (1:1)","Scheuring and Weil, 1985"
 12031-70-8,, LiRb,4.3 ¡À 0.1,PI,"Lithium, compound with rubidium (1:1)","Kappes and Schumacher, 1985"
 13568-45-1,, Li,9.2 ¡À 0.5,EI,dilithium wolframate,"Yamdagni, Pupp, et al., 1970"
 56095-08-0,, LiNa,4.07 ¡À 0.04,PI,Lithium disodium,"Kappes and Schumacher, 1985"
 12333-49-2,LBLHLM, LiNa,5.05 ¡À 0.04,PI,"Lithium, compound with sodium (1:1)","Kappes and Schumacher, 1985"
 12030-50-1,RDSH, IrO,11.9,EI,Iridium trioxide,"Norman, Staley, et al., 1965"
 12372-50-8,, LiPb,6.4 ¡À 0.5,EI,"Lithium, compound with lead (1:1)","Neubert, Ihle, et al., 1980"
 13568-40-6,LBLHLM, Li,9.6,EI,dilithium molybdate,"Ikeda, Tamaki, et al., 1982"
 12142-77-7,LBLHLM, LiO,8.44,S,Lithium monoxide,"Butman, Kudin, et al., 1984"
 74803-91-1,, LiOSi,6.3 ¡À 0.3,EI,Lithium silicon monoxide,"Wu, Ihle, et al., 1980"
 12030-49-8,, IrO,10.9,EI,iridium dioxide,"Norman, Staley, et al., 1965"
 89482-81-5,, LiNa,4.2 ¡À 0.1,PI,Lithium trisodium,"Kappes and Schumacher, 1985"
 12596-47-3,LL, Li,4.08 ¡À 0.05,PI,Trilithium,"Dugourd, Rayane, et al., 1992"
 7439-93-2,LL, Li,5.39172,EVAL,lithium,"Lide, 1992"
 69235-02-5,LLK, Li,4.5 ¡À 0.2,EI,Trilithium monoxide,"Wu, Kudo, et al., 1979"
 53095-72-0,, IrLa,6.0 ¡À 1.0,EI,"Lanthanum, compound with iridium(1:1)","Haque, Pelino, et al., 1979"
 7439-88-5,LL, Ir,9.1,EVAL,iridium,"Lide, 1992"
 25681-81-6,LBLHLM, Rb,3.9 ¡À 0.1,PI,Dirubidium,"Kappes and Schumacher, 1985"
 105878-26-0,, Nb,10. ¡À 1.,EI,Tetraniobium decaoxide,"Balducci, Gigli, et al., 1986"
 1313-96-8,, Nb,10. ¡À 1.,EI,diniobium pentaoxide,"Balducci, Gigli, et al., 1986"
 105878-27-1,, Nb,11. ¡À 1.,EI,Tetraniobium nonaoxide,"Balducci, Gigli, et al., 1986"
 12596-70-2,, Nb,6.368 ¡À 0.001,LS,Niobium dimer,"James, Kowalczyk, et al., 1994"
 12185-05-6,, Ne,20.33 ¡À 0.08,PE,Neon dimer,"Trevor, Pollard, et al., 1984"
 12596-98-4,LLK, Rh,7.1 ¡À 1.0,EI,Rhodium dimer,"Cocke and Gingerich, 1974"
 12339-78-5,, Lu,6.5 ¡À 0.7,EI,Dilutetium monoxide,"Kordis and Gingerich, 1977"
 12031-30-0,, LaS,~5.,EI,Lanthanum monosulfide,"Cater, Lee, et al., 1965"
 12142-68-6,, LaRh,7.7 ¡À 1.0,EI,"Lanthanum, compound with rhodium(1:1)","Cocke, Gingerich, et al., 1973"
 12142-67-5,LLK, LaPt,5.4 ¡À 0.8,EI,"Lanthanum, compound with platinum (1:1)","Nappi and Gingerich, 1981"
 1313-22-0,, MnSe,8.2 ¡À 0.5,EI,manganese selenide,"Smoes and Drowart, 1977"
 10102-03-1,LLK, N,11.4,PE,Dinitrogen pentoxide,"Ames and Turner, 1976"
 10544-72-6,LLK, N,10.8 ¡À 0.2,PE,Dinitrogen tetroxide,"Frost, McDowell, et al., 1977"
 13840-74-9, , N,9.1,PE,"Sulfur diamide, N,N'-disulfinyl-","Gleiter and Bartetzko, 1981"
 10024-97-2,LLK, N,12.89,PE,Nitrous oxide,"Kimura, Katsumata, et al., 1981"
 17739-47-8,LLK, NP,11.88 ¡À 0.01,PE,Phosphorus mononitride,"Bulgin, Dyke, et al., 1977"
 56400-02-3,, N,10.6,PE,Dinitrogen-N-sulfide,"Bender, Carnovale, et al., 1988"
 7727-37-9,LL, N,15.581 ¡À 0.008,S,Nitrogen,"Trickl, Cromwell, et al., 1989"
 25474-92-4, , N,10.41,PE,Disulfur dinitride,"Frost, LeGeyt, et al., 1977"
 7439-91-0,LL, La,5.577,EVAL,lanthanum,"Lide, 1992"
 7439-94-3,LL, Lu,5.42585,EVAL,lutetium,"Lide, 1992"
 12372-56-4,Vertical value, N,12.35 ¡À 0.11,PE,Titanium tetranitrate,"Garner, Hawksworth, et al., 1980"
 28950-34-7, , N,10.4 ¡À 0.6,EI,Tetranitrogen tetrasulfide,"Smith, Wyatt, et al., 1976"
 10102-45-1,Vertical value, NO,9.9 ¡À 0.05,PE,thallium nitrate,"Schweitzer, McMurtrie, et al., 1977"
 12033-49-7,LL, NO,12.57 ¡À 0.03,PI,Nitrate Radical,"Monks, Stief, et al., 1994"
 13126-12-0,Vertical value, NO,8.89 ¡À 0.03,PE,rubidium nitrate,"Bowling, Sherrod, et al., 1978"
 10102-44-0,LL, NO,9.60 ¡À 0.03,END,Nitrogen dioxide,"Clemmer and Armentrout, 1992"
 16017-37-1,Vertical value, N,12.33 ¡À 0.04,PE,"Vanadium, trinitratooxo-","Garner, Hawksworth, et al., 1980"
 12033-47-5,, NOSi,10.8 ¡À 0.5,EI,Disilicon mononitride monoxide,"Muenow, 1973"
 10102-43-9,LL, NO,9.26438 ¡À 0.00005,TE,Nitric oxide,"Reiser, Habenicht, et al., 1988"
 12033-56-6,RDSH, NS,9.85 ¡À 0.28,DER,Mononitrogen monosulfide,"O'Hare, 1970"
 12293-67-3,LLK, NSi,9.3 ¡À 0.5,EI,Disilicon mononitride,"Muenow, 1974"
 25658-42-8,RDSH, NZr,7.9 ¡À 0.4,EI,zirconium nitride,"Gingerich, 1968"
 12596-60-0,LBLHLM, N,11.06 ¡À 0.01,PE,Azide radical,"Dyke, Jonathan, et al., 1982"
 17778-88-0,LL, N,14.53414,EVAL,Nitrogen atom,"Lide, 1992"
 25583-20-4,, NTi,6. ¡À 2.,EI,titanium nitride,"Stearns and Kohl, 1970"
 64885-69-4, , N,8.3,PE,"1,3,5,2,4,6-Trithiatriazinyl radical","Lau, Westwood, et al., 1985"
 7439-96-5,LL, Mn,7.43402,EVAL,manganese,"Lide, 1992"
 12596-53-1,LBLHLM, Mn,¡Ü6.47,DER,Manganese dimer,"Jarrold, Illies, et al., 1985"
 12034-57-0,LBLHLM, NbO,7.91 ¡À 0.02,PE,niobium oxide,"Dyke, Ellis, et al., 1987"
 1344-43-0,LBLHLM, MnO,8.7 ¡À 0.2,END,manganese oxide,"Armentrout, Halle, et al., 1982"
 58984-40-0,LBLHLM, NeXe,12.09 ¡À 0.04,PI,"Neon, compound with xenon (1:1)","Pratt and Dehmer, 1982"
 68777-40-2,, NbV,6.392 ¡À 0.001,LS,Vandium niobide,"James, Kowalczyk, et al., 1994"
 7440-03-1,LL, Nb,6.75885,EVAL,niobium,"Lide, 1992"
 7440-01-9,LL, Ne,21.56454,EVAL,neon,"Lide, 1992"
 7439-99-8,LL, Np,6.2655 ¡À 0.0002,LS,neptunium,"Trautmann, 1994"
 12202-03-8,LLK, NpO,5.7 ¡À 0.1,EI,Neptunium monoxide,"Rauh and Ackermann, 1975"
 7440-04-2,LL, Os,8.7,EVAL,osmium,"Lide, 1992"
 12596-92-8,LBLHLM, Pb,6.1 ¡À 0.3,EI,Dilead,"Saito, Yamauchi, et al., 1982"
 1314-87-0,RDSH, PbS,8.4 ¡À 0.5,EI,lead sulphide,"Uy and Drowart, 1969"
 51682-73-6,, Pb,9.2 ¡À 0.5,EI,Dilead disulfide,"Colin and Drowart, 1962"
 1314-91-6,RDSH, PbTe,8.3 ¡À 0.5,EI,lead telluride,"Uy and Drowart, 1969"
 12069-00-0,RDSH, PbSe,8.4 ¡À 0.5,EI,lead selenide,"Uy and Drowart, 1969"
 7439-92-1,LL, Pb,7.6 ¡À 0.2,EI,lead,"Makarov and Zbezhneva, 1993"
 7440-10-0,LL, Pr,5.464,EVAL,praseodymium,"Lide, 1992"
 7440-17-7,LL, Rb,4.17713,EVAL,rubidium,"Lide, 1992"
 12166-12-0,, RhSc,8.0 ¡À 1.0,EI,"Rhodium, compound with scandium(1:1)","Haque and Gingerich, 1979"
 12038-83-4,, RhY,7.2 ¡À 1.0,EI,"Rhodium, compound with yttrium(1:1)","Haque and Gingerich, 1979"
 12067-05-9,, RhTi,7.9 ¡À 1.0,EI,"Rhodium, compound with titanium(1:2)","Cocke and Gingerich, 1974"
 12600-90-7,LLK, RhTi,8.2 ¡À 1.0,EI,"Rhodium, compound with titanium (1:1)","Cocke and Gingerich, 1974"
 7440-16-6,LL, Rh,7.4589,EVAL,rhodium,"Lide, 1992"
 7440-74-6,LL, In,5.7 ¡À 0.2,EI,indium,"Bencze, Marsel, et al., 1993"
 66459-14-1,LLK, K,4.0 ¡À 0.1,PI,Dipotassium disodium,"Herrmann, Leutwyler, et al., 1978"
 12532-69-3,LLK, K,3.6 ¡À 0.1,PI,"Potassium, compound with sodium (2:1)","Herrmann, Leutwyler, et al., 1978"
 17014-71-0,RDSH, K,~5.,EI,dipotassium peroxide,"Gusarov and Gorokhov, 1966"
 12136-45-7,LBLHLM, K,4.7 ¡À 0.4,PI,dipotassium oxide,"Dao, Peterson, et al., 1984"
 10233-01-9,, K,7.4 ¡À 0.5,EI,"sulphuric acid, potassium salt","Ficalora, Uy, et al., 1968"
 12134-74-6,LLK, GdS,6.9 ¡À 0.6,EI,Gadolinium monosulfide,"Fries and Cater, 1978"
 13572-98-0,, GdI,9.2 ¡À 0.2,EI,gadolinium triiodide,"Hirayama and Castle, 1973"
 7440-54-2,LL, Gd,6.15,EVAL,gadolinium,"Lide, 1992"
 66419-70-3,, KNa,4.1 ¡À 0.05,PI,"Potassium, compound with sodium(1:3)","Herrmann, Leutwyler, et al., 1978"
 12056-29-0,LBLHLM, KNa,4.4164 ¡À 0.0002,PI,Potassium sodide,"Kappes, Radi, et al., 1985"
 66419-71-4,, KNa,4.0 ¡À 0.1,PI,"Potassium, compound with sodium(1:4)","Herrmann, Leutwyler, et al., 1978"
 66419-72-5,, KNa,4.1 ¡À 0.1,PI,"Potassium, compound with sodium(1:5)","Herrmann, Leutwyler, et al., 1978"
 25681-80-5,LBLHLM, K,4.0637 ¡À 0.0002,PI,Dipotassium,"Kappes, Radi, et al., 1985"
 62462-54-8,, Gd,6.5 ¡À 1.0,EI,Digadolinium monoxide,"Kordis and Gingerich, 1977"
 62462-55-9,, Gd,8.2 ¡À 1.0,EI,Digadolinium dioxide,"Kordis and Gingerich, 1977"
 39297-76-2,LLK, K,3.6 ¡À 0.1,PI,Potassium tetramer,"Herrmann, Leutwyler, et al., 1978"
 12286-02-1,LLK, KNa,3.7 ¡À 0.1,PI,"Potassium, compound with sodium(1:2)","Herrmann, Leutwyler, et al., 1978"
 39297-80-8,LBLHLM, K,3.49 ¡À 0.10,PI,Potassium octamer,"Kappes, Radi, et al., 1985"
 89091-88-3,, K,3.62 ¡À 0.04,PI,Tetrapotassium monoxide,"Dao, Peterson, et al., 1984"
 7788-97-8,LLK, CrF,12.5 ¡À 0.3,EI,chromium trifluoride,"Malkerova, Alikhanyan, et al., 1979"
 10049-10-2,LLK, CrF,10.6 ¡À 0.3,EI,chromium difluoride,"Malkerova, Alikhanyan, et al., 1979"
 26117-61-3, , CrF,9,PE,"Chromium, hexakis(phosphorus trifluoride)","Nixon, 1973"
 39297-78-4,LBLHLM, K,3.44 ¡À 0.10,PI,Potassium hexamer,"Kappes, Radi, et al., 1985"
 13943-42-5,LLK, CrF,9.3 ¡À 0.4,EI,Chromium monofluoride,"Malkerova, Alikhanyan, et al., 1979"
 1333-82-0,RDSH, CrO,11.6 ¡À 0.5,EI,chromium trioxide,"Grimley, Burns, et al., 1961"
 12018-00-7,LBLHLM, CrO,7.85 ¡À 0.02,PE,Chromium monoxide,"Dyke, Gravenor, et al., 1983"
 80028-08-6,, CrO,8.0 ¡À 0.5,EI,Chromium phosphorus dioxide,"Balducci, Gigli, et al., 1981"
 12184-82-6,LBLHLM, Cr,6.4 ¡À 0.2,EI,Chromium dimer,"Hilpert and Ruthardt, 1987"
 13465-07-1,LLK, H,9.3,PE,Dihydrogen disulfide,"Wagner and Bock, 1974"
 13770-40-6,LL, H,10.78 ¡À 0.05,DER,Amino radical,"Qi, Sheng, et al., 1995"
 15626-43-4,LLK, H,9.65 ¡À 0.08,EI,(E)-Diazene,"Foner and Hudson, 1978"
 3618-05-1,T = 0K; , H,9.589 ¡À 0.007,PI,Diimide,"Ruscic and Berkowitz, 1991"
 7783-06-4,LBLHLM, H,10.453 ¡À 0.008,PI,Hydrogen sulfide,"Walters and Blais, 1984"
 14314-42-2,, H,12.615 ¡À 0.001,PE,Water-,"Karlsson, Mattson, et al., 1975"
 7783-09-7,LLK, H,9.2 ¡À 0.1,EI,dihydrogen telluride,"Balkis, Gaines, et al., 1976"
 36835-58-2,LL, H,8.20 ¡À 0.02,PI,Disilicon dihydride,"Ruscic and Berkowitz, 1991"
 13825-90-6,LBLHLM, H,8.92 ¡À 0.07,END,Silylene,"Boo and Armentrout, 1987"
 7783-07-5,LBLHLM, H,9.886 ¡À 0.003,PI,dihydrogen selenide,"Gibson, Greene, et al., 1986"
 7722-84-1,LLK, H,10.62,PE,Hydrogen peroxide,"Ashmore and Burgess, 1977"
 7732-18-5,LL, H,12.65 ¡À 0.05,EI,Water,"Snow and Thomas, 1990"
 41916-72-7,RDSH, H,10.2 ¡À 0.2,EI,Diphosphene,"Fehlner and Callen, 1968"
 13765-43-0,T = 0K; , H,9.824 ¡À 0.002,PI,Phosphino radical,"Berkowitz, Curtiss, et al., 1986"
 19709-52-5,, H,6.1 ¡À 0.2,EI,Monolithium dihydride,N/A
 20346-77-4,, H,8.731 ¡À 0.012,PI,Stibino radical,"Ruscic and Berkowitz, 1993"
 31060-73-8,, H,8.6,DER,Dihydrogen polonide,"Price, Teegan, et al., 1950"
 126682-56-2,, H,3.94 ¡À 0.08,PI,Dipotassium amide,"Kuan and Jiang, 1990"
 72414-64-3,, H,3.92 ¡À 0.04,PI,Potassium dihydrogen oxide,"Kuan and Jiang, 1990"
 1333-74-0,T = 0K; , H,15.425927,EVAL,Hydrogen,"Shiner, Gilligan, et al., 1993"
 13760-02-6,LLK, H,9.4,PE,Diiodosilane,"Cradock and Whiteford, 1971"
 7440-47-3,LL, Cr,6.76664,EVAL,chromium,"Lide, 1992"
 107069-78-3,, EuNbO,~6.5 ¡À 0.5,EI,Europium niobium dioxide,"Balducci, Gigli, et al., 1987"
 33019-21-5,LBLHLM, FeI,7.8 ¡À 0.5,DER,Iron monoiodide,"Grade and Rosinger, 1984"
 14452-76-7,LL, HMn,7.8,DER,Manganese monohydride,"Lias, Bartmess, et al., 1988"
 7783-86-0,LBLHLM, FeI,9.3 ¡À 0.2,EI,iron diiodide,"Grade and Rosinger, 1985"
 55216-32-5,, EuNb,9.0 ¡À 0.5,EI,Europium diniobium hexaoxide,"Balducci, Gigli, et al., 1987"
 17209-60-8,, EuF,5.9 ¡À 0.3,EI,Europium monofluoride,"Zmbov and Margrave, 1967"
 13967-14-1,LL, HP,10.149 ¡À 0.008,PI,Phosphinidene,"Berkowitz and Cho, 1988"
 7783-29-1,LLK, H,8.9,PE,Tetrasilane,"Bock, Ensslin, et al., 1976"
 12315-09-2,LLK, FeHO,7.9 ¡À 0.02,EI,Iron monohydroxide,"Murad, 1980"
 12054-11-4,, CuSn,7.2 ¡À 1.0,EI,"Copper, compound with tin (1:1)","Kingcade, Dufner, et al., 1978"
 16087-67-5,RDSH, ErF,6.3 ¡À 0.3,EI,Erbium monofluoride,"Zmbov and Margrave, 1966"
 7789-19-7,LLK, CuF,12.7,PE,copper difluoride,"Dyke, Fayad, et al., 1980"
 16087-65-3,RDSH, ErF,7.0 ¡À 0.3,EI,Erbium difluoride,"Zmbov and Margrave, 1966"
 1345-25-1,LBLHLM, FeO,8.9 ¡À 0.16,END,iron oxide,"Armentrout, Halle, et al., 1982"
 67244-68-2,Vertical value, Cu,8.99 ¡À 0.02,PE,Copper iodide trimer,"Potts and Lyus, 1978"
 66771-03-7,LL, Cu,6.1 ¡À 1.0,EI,Copper trimer,"Franzreb, Wucher, et al., 1990"
 56261-48-4,, CuI,7.9,EI,Sodium copper diodide,"Bloom and Williams, 1981"
 129863-13-4,, ErI,7.4,EI,Erbium sodium tetraiodide,"Metallinou, Herstad, et al., 1990"
 55957-42-1,, EuS,7.2 ¡À 0.5,EI,Europium disulfide,"Smoes, Drowart, et al., 1978"
 12020-65-4,LLK, EuS,6.8 ¡À 0.3,EI,europium sulphide,"Smoes, Drowart, et al., 1978"
 12596-00-8,, Eu,6.3 ¡À 1.0,EI,Europium dimer,"Kordis and Gingerich, 1973"
 62462-51-5,, Eu,6.6 ¡À 0.5,EI,Dieuropium disulfide,"Smoes, Drowart, et al., 1978"
 62462-47-9,, Eu,6.1 ¡À 0.9,EI,Dieuropium monoxide,"Kordis and Gingerich, 1977"
 62462-49-1,, Eu,6.7 ¡À 0.5,EI,Dieuropium monosulfide,"Smoes, Drowart, et al., 1978"
 13813-42-8,LL, ErI,8.9,EI,erbium triiodide,"Metallinou, Herstad, et al., 1990"
 12280-61-4,LLK, ErO,6.2 ¡À 0.5,EI,Erbium monoxide,"Murad and Hildenbrand, 1980"
 62462-48-0,, Eu,7.4 ¡À 1.0,EI,Dieuropium dioxide,"Kordis and Gingerich, 1977"
 52935-15-6,, Cu,7.7 ¡À 1.0,EI,"Copper, compound with tin(2:1)","Kingcade, Dufner, et al., 1978"
 12190-70-4,LL, Cu,7.46 ¡À 0.15,EI,Copper dimer,"Franzreb, Wucher, et al., 1990"
 65357-62-2,LL, Cu,7.0 ¡À 0.6,EI,Copper tetramer,"Franzreb, Wucher, et al., 1990"
 12020-60-9,LBLHLM, EuO,6.5 ¡À 0.5,EI,europium oxide,"Balducci, Gigli, et al., 1985"
 13537-12-7,, EuO,10.1,EI,Europium tungsten tetraoxide,"Balducci, Gigli, et al., 1981"
 92785-63-2,, Fe,8.9 ¡À 0.2,EI,Diiron tetraiodide,"Grade and Rosinger, 1985"
 92785-64-3,, Fe,9.2 ¡À 0.2,EI,Diiron diiodide,"Grade and Rosinger, 1985"
 10031-43-3,Vertical value, CuN,10.47 ¡À 0.04,PE,"Nitric acid, copper(2+) salt, hydrate (2:1:3)","Garner, Hawksworth, et al., 1980"
 88762-30-5,, EuO,8. ¡À 1.,EI,Monoeuropium monovandium dioxide,"Balducci, Gigli, et al., 1983"
 39432-21-8,LBLHLM, EuO,8.1 ¡À 0.5,EI,Europium metavanadate,"Balducci, Gigli, et al., 1983"
 12020-61-0,LBLHLM, EuO,6.5 ¡À 0.5,EI,Europium titanium trioxide,"Balducci, Gigli, et al., 1985"
 12596-01-9,LBLHLM, Fe,6.30 ¡À 0.01,PI,Iron dimer,"Rohlfing, Cox, et al., 1984"
 12019-22-6,, CuTb,5.3 ¡À 0.3,EI,"Copper, compound with terbium(1:1)","Hilpert, 1979"
 7440-52-0,LL, Er,6.1078,EVAL,erbium,"Lide, 1992"
 19415-73-7,Vertical value, H,8.63,PE,"Tellurium, bis(trimethylsilyl)-","Cradock and Whiteford, 1972"
 1590-87-0,T = 0K; , H,9.74 ¡À 0.02,PI,Disilane,"Ruscic and Berkowitz, 1991"
 13597-73-4,Vertical value; , H,11.19,PE,Disiloxane,"Bock, Mollere, et al., 1973"
 7783-26-8, , H,9.2,PE,Trisilane,"Bock, Ensslin, et al., 1976"
 14868-53-2,Vertical value, H,9.36,PE,Pentasilane,"Bock, Ensslin, et al., 1976"
 102437-78-5,, HSi,¡Ü6.89 ¡À 0.13,DER,Disilicon hydride,"Boo and Armentrout, 1987"
 13774-94-2,LBLHLM, HSi,7.89 ¡À 0.07,END,Silylidyne,"Boo and Armentrout, 1987"
 32745-15-6,, H,9.0 ¡À 0.3,El,Distannane,"Saalfeld and Svec, 1963"
 16544-95-9,Vertical value, H,9.59,PE,Disilathiane,"Mollere, Bock, et al., 1973"
 14939-45-8,Vertical value, H,9.18,PE,Disilaselenane,"Cradock and Whiteford, 1972"
 36882-13-0,, HN,7.8 ¡À 0.05,EI,Dinitrogen monohydride,"Wiberg, Fischer, et al., 1979"
 7803-62-5,LL, H,11.2 ¡À 0.1,PI,Silane,"Shin, Corderman, et al., 1990"
 7782-79-8,LLK, HN,10.74,PE,Hydrogen azide,"Bastide and Maier, 1976"
 15435-77-5,, H,8.09 ¡À 0.03,PI,Disilene,"Ruscic and Berkowitz, 1991"
 2406-52-2,LLK, H,10.75,PE,Stannane,"Potts and Price, 1972"
 12281-10-6,LLK, HoO,6.1 ¡À 0.5,EI,Holmium monoxide,"Murad and Hildenbrand, 1980"
 7580-67-8,LLK, HLi,7.9 ¡À 0.3,EI,lithium hydride,N/A
 12339-13-8,, HLi,4.5 ¡À 0.3,EI,Dilithium hydride,N/A
 14332-28-6,LL, HNO,10.1,DER,Nitrosyl hydride,"Lias, Bartmess, et al., 1988"
 13774-92-0,RDSH, HN,12.8,EI,Imidogen,"Melton, 1966"
 14332-32-2,LL, HNi,8.50 ¡À 0.10,END/DER,Nickel hydride (NiH),"Kickel and Armentrout, 1995"
 13817-04-4,LLK, HNOS,11.3,PE,Thionylimide,"Solouki, Rosmus, et al., 1976"
 13940-35-7,LL, HSb,8.753 ¡À 0.009,PI,Stibylene,"Ruscic and Berkowitz, 1993"
 92075-50-8,, H,4.73 ¡À 0.06,DER,Nitrogen tetrahydride,"Gellene, Cleary, et al., 1982"
 14044-97-4,Vertical value, H,9.97,PE,Silanethiol,"Cradock and Whiteford, 1972"
 302-01-2,LBLHLM, H,8.1 ¡À 0.15,EQ,Hydrazine,"Mautner(Meot-Ner), Nelsen, et al., 1984"
 13445-50-6,LLK, H,8.8,PE,Diphosphine,"Elbel, Dieck, et al., 1976"
 25655-83-8,, H,¡Ü11.21 ¡À 0.09,PI,Water dimer,"Ng, Trevor, et al., 1977"
 22015-35-6,, EuI,8.9 ¡À 0.2,EI,europium diiodide,"Hariharan and Eick, 1972"
 12394-89-7,, CuGe,7.5,EI,"Copper, compound with germanium (1:1)","Neckel and Sodeck, 1972"
 12018-93-8,, CuHo,5.3 ¡À 0.3,EI,"Copper, compound with holmium(1:1)","Hilpert, 1979"
 12018-73-4,, CuDy,5.4 ¡À 0.4,EI,"Copper, compound with dysprosium(1:1)","Hilpert, 1979"
 7440-53-1,LL, Eu,5.6704,EVAL,europium,"Lide, 1992"
 7440-50-8,LL, Cu,7.72638,EVAL,copper,"Lide, 1992"
 76797-74-5,LBLHLM, FeV,5.4,PI,"Iron, compound with vanadium (1:1)","Hettich and Freiser, 1985"
 7439-89-6,LL, Fe,7.92,EI,iron,"Russell, Solouki, et al., 1995"
 15110-33-5,Vertical value, H,9.3 ¡À 0.1,PE,"Phosphine, trisilyl-","Cradock, Ebsworth, et al., 1972"
 13862-16-3,Vertical value, H,9.7 ¡À 0.1,PE,"Silanamine, N,N-disilyl-","Cradock, Ebsworth, et al., 1972"
 73151-72-1,, H,7.60 ¡À 0.05,PI,Disilanyl,"Ruscic and Berkowitz, 1991"
 13847-60-4,Vertical value, H,10.33 ¡À 0.02,PE,"Silane, azido-","Cradock, Ebsworth, et al., 1972"
 13598-46-4,LL, H,7.61 ¡À 0.01,PI,Hydrazinyl radical,"Ruscic and Berkowitz, 1991"
 61279-79-6,, HO,<3.89,DER,Hydroxydioxouranium,"Kelly and Padley, 1971"
 7664-41-7,T = 0K; , H,10.02,PI,Ammonia,"Qi, Sheng, et al., 1995"
 12208-07-0,, H,9.1,EI,Diphosphorus trihydride,"Wada and Kiser, 1964"
 57251-86-2,Vertical value, H,10.55,PE,"Silanamine, N-sulfinyl-","Cradock, Ebsworth, et al., 1975"
 7803-49-8,LBLHLM, H,10,PE,Hydroxylamine,"Koppel, Molder, et al., 1983"
 7803-51-2,LL, H,9.87 ¡À 0.01,PIPECO,Phosphine,"Ruede, Troxler, et al., 1993"
 13597-70-1,, H,8.7 ¡À 0.1,EI,Triphosphine,"Fehlner, 1968"
 14616-47-8,RDSH, H,10.0 ¡À 0.2,EI,"Phosphine, silyl-","Saalfeld and Svec, 1964"
 13940-21-1,LL, HS,10.4219,TE,Mercapto radical,"Milan, Buma, et al., 1996"
 12141-14-9,LBLHLM, HOSr,5.1 ¡À 0.2,EI,Strontium monohydroxide,"Murad, 1983"
 12135-45-4,LL, H,¡Ü7.59,PI,Disilicon trihydride,"Ruscic and Berkowitz, 1991"
 13765-44-1,LL, H,8.17,DER,Silyl radical,"Nagano, Murthy, et al., 1993"
 3170-83-0,LLK, HO,11.35 ¡À 0.01,PE,Hydroperoxy radical,"Dyke, Jonathan, et al., 1981"
 13940-22-2,LBLHLM, HSe,9.845 ¡À 0.003,PI,Selenium monohydride,"Gibson, Greene, et al., 1986"
 3352-57-6,LL, HO,13.0170 ¡À 0.0002,TE,Hydroxyl radical,"Wiedmann, Tonkyn, et al., 1992"
 13940-36-8,LLK, HTe,9.09,S,Tellurium monohydride,"Donovan, Little, et al., 1972"
 13981-87-8,LL, HZn,9.4,DER,Zinc monohydride,"Lias, Bartmess, et al., 1988"
 66098-72-4,, H,3.87 ¡À 0.04,PI,Potassium trihydrogen nitride,"Kuan and Jiang, 1990"
 13598-42-0,Vertical value; , H,9.78 ¡À 0.02,PE,Iodosilane,"Cradock and Whiteford, 1971"