CAS,Comment,Formula,IE,Method,Name,Refer
 39491-65-1,LLK, C,8.45,PE,"trans-1,3-octadiene","Masclet, Mouvier, et al., 1981"
 53793-31-0,LBLHLM, C,8.96,EI,"1,4-Octadiene, trans","Holmes and Lossing, 1986"
 102575-25-7, , C,8.3,PE,"Tricyclo[4.1.1.0(7,8)]oct-3-ene","Gleiter, Bischof, et al., 1986"
 61772-31-4,Vertical value, C,8.64,PE,Tricyclo[4.1.0.0,"Bischof, Gleiter, et al., 1978"
 54290-41-4,Vertical value, C,9,PE,"Cyclohexene,4,5-bis(methylene)-","Asmus and Klessinger, 1974"
 102575-26-8, , C,8.2,PE,Tricyclo[4.1.1.0,"Gleiter, Bischof, et al., 1986"
 76486-72-1,LBLHLM, C,8.4,PE,"Bi-2-cyclopropen-1-yl, 1,1'-dimethyl, trans-","Spanget-Larsen, de Korswagen, et al., 1982"
 53143-64-9,Vertical value; , C,7.89,PE,"Spiro[2.5]octa-4,6-diene","deMeijere, 1974"
 75029-45-7, , C,8.44,PE,1-Cycloocten-3-yne,"Meier, Konig, et al., 1985"
 39781-76-5,Vertical value, C,9.25,PE,"Tricyclo[4.2.0.0<sup>2,5</sup>]oct-3-ene,(1&#945;,2&#946;,5&#946;,6&#945;)-","Gleiter, Heilbronner, et al., 1973"
 21426-37-9,LLK, C,8.4,PE,Dispiro[2.0.2.2]octane,"Hemmersbach and Klessinger, 1980"
 17679-92-4,LLK, C,8.83 ¡À 0.01,PE,1-Octen-3-yne,"Carlier, Mouvier, et al., 1979"
 931-48-6,Vertical value; , C,9.92,PE,Cyclohexylacetylene,"Bruckmann and Klessinger, 1973"
 5664-20-0,, C,8.69,PE,"Cyclohexane,ethenylidene-","Pasto, Fehlner, et al., 1976"
 25399-32-0,LLK, C,8.8,PE,Dispiro[2.1.2.1]octane,"Hemmersbach and Klessinger, 1980"
 1781-78-8, , C,8.9,PE,Cyclooctyne,"Bieri, Heilbronner, et al., 1974"
 16789-51-8,LLK, C,8.480 ¡À 0.004,PE,3-Ethyl-3-hexene,"Masclet, Grosjean, et al., 1973"
 22389-16-8,RDSH, C,8.8 ¡À 0.1,EI,Tricyclo[3.2.1.0,"Brion, Farmer, et al., 1970"
 63001-13-8,LBLHLM, C,8,PE,"1,5-Dimethyl-3-exo-methylenetricyclo[2.1.0.0]pentane","Gleiter, Haider, et al., 1984"
 3725-33-5,Vertical value, C,8.5,PE,Tricyclo[3.2.1.0,"Askani, Gleiter, et al., 1971"
 61772-33-6,Vertical value, C,8.45,PE,Tricyclo[4.1.0.0,"Bischof, Gleiter, et al., 1978"
 3725-20-0,, C,8.43,PE,"Bicyclo[5.1.0]octa-2,5-diene","Bischof, Gleiter, et al., 1970"
 61885-53-8,Vertical value, C,8.11,PE,"Bicyclo[4.1.1]octa-2,4-diene","Gleiter, Bischof, et al., 1977"
 53754-35-1,Vertical value, C,8.63,PE,Tricyclo[3.3.0.0,"Bischof, Gleiter, et al., 1974"
 1482-91-3,, C,~7.8,DER,"1,3,5,7-Octatetraene","Price, 1946"
 15439-15-3,LLK, C,8.2,PE,"Spiro[3.4]octa-5,7-diene","Bischof, Gleiter, et al., 1974"
 68177-00-4,LLK, C,8.9,PE,1-Cycloocten-5-yne,"Leupin and Wirz, 1978"
 13377-46-3,RDSH, C,9.1 ¡À 0.1,EI,Tricyclo[3.2.1.0,"Brion, Farmer, et al., 1970"
 17669-40-8,LLK, C,8.62 ¡À 0.01,PE,2-Methyl-1-hepten-3-yne,"Carlier, Mouvier, et al., 1979"
 823-02-9,RDSH, C,8.76 ¡À 0.02,PI,Bicyclo(3.2.1)oct-2-ene,"Demeo and El-Sayed, 1970"
 77614-67-6,LLK, C,8.9,PE,"trans-1,3-Diethenylcyclobutane","Bischof, Gleiter, et al., 1981"
 36328-29-7, , C,8.2,PE,Tricyclo[4.1.1.0,"Gleiter, Bischof, et al., 1986"
 14783-50-7,LLK, C,8.65,PE,Spiro[3.4]oct-5-ene,"Bischof, Gleiter, et al., 1974"
 50895-58-4,Vertical value; , C,9.39,PE,Tricyclo[5.1.0.0,"Heilbronner, Gleiter, et al., 1973"
 42104-42-7,LLK, C,8.87 ¡À 0.01,PE,"3-Octen-1-yne, (E)-","Carlier, Mouvier, et al., 1979"
 2431-31-4,, C,7.7,PE,"2,3,4-Hexatriene, 2,5-dimethyl-","Brogli, Heilbronner, et al., 1974"
 50695-42-6,Vertical value; , C,8.95,PE,Tricyclo[5.1.0.0,"Heilbronner, Gleiter, et al., 1973"
 185-65-9,Vertical value, C,9.46,PE,Spiro[2.5]octane,"deMeijere, 1974"
 2417-88-1,LBLHLM, C,8,PE,"2,4-Hexadiene, 3,4-dimethyl-, (E,Z)-","Honegger, Zhong-zhi, et al., 1984"
 765-83-3,Vertical value, C,8.34 ¡À 0.02,PE,"Cyclopentane, (1-methylethylidene)-","Brown, Buschek, et al., 1983"
 18265-39-9,LBLHLM, C,7.8,PE,"(E,E)-2,4-Hexadiene, 3,4-dimethyl-","Honegger, Zhong-zhi, et al., 1984"
 21293-01-6,LBLHLM, C,8.1,PE,"2,4-Hexadiene, 3,4-dimethyl-, (Z,Z)-","Honegger, Zhong-zhi, et al., 1984"
 42091-89-4,, C,8.91 ¡À 0.01,PE,"3-Octen-1-yne, (Z)-","Carlier, Mouvier, et al., 1979"
 77614-53-0,Vertical value; , C,9.38,PE,"cis-1,3-Diethenylcyclobutane","Bischof, Gleiter, et al., 1981"
 16356-05-1,Vertical value; , C,8.58,PE,"2,3-Diethyl-1,3-butadiene","Masclet, Mouvier, et al., 1981"
 60166-71-4,, C,8.96,PE,"Cyclopropane,1-(1,2-butadienyl)-2-methyl-cis-","Dewar, Fonken, et al., 1976"
 7647-57-6,Vertical value; , C,8.44,PE,Spiro[2.5]oct-4-ene,"deMeijere, 1974"
 32348-63-3,Vertical value, C,8.2,PE,Tricyclo[4.1.0.0,"Bischof, Gleiter, et al., 1978"
 40391-49-9,Vertical value, C,8.42,PE,Tricyclo[4.1.0.0,"Bischof, Gleiter, et al., 1978"
 60166-69-0,, C,8.81,PE,"Cyclopropane,1-methyl-1-(1-methyl-1,2-propadienyl)-","Dewar, Fonken, et al., 1976"
 4911-60-8,, C,9.180 ¡À 0.010,PE,"3-Hexyne, 2,2-dimethyl-","Carlier, Dubois, et al., 1975"
 56617-18-6,, C,9.284 ¡À 0.007,PE,"2-Hexyne, 5,5-dimethyl","Carlier, Dubois, et al., 1975"
 16895-46-8,Vertical value, C,7.88,PE,"1,3,5-Heptatriene, 6,6-dimethyl-, (E)-","Astrup, Bock, et al., 1975"
 23510-65-8,, C,7.7,PI,"Cyclopropane,1,1'-(1,2-ethenediyl)bis-(Z)","Nishida, Moritani, et al., 1972"
 66438-88-8,Vertical value, C,9.78,PE,"Cyclobutane,3-ethynyl-1,1-dimethyl","Bruckmann and Klessinger, 1978"
 10359-44-1,, C,7.72,PI,"Cyclopropane,1,1'-(1,2-ethenediyl)bis-(E)","Nishida, Moritani, et al., 1972"
 115864-00-1,, C,7.96 ¡À 0.05,EI,"1,2,3-Trimethylcyclopentadiene","Meyer and Harrison, 1964"
 60166-72-5,, C,8.78,PE,"Cyclopropane,(3-methyl-1,2-butadienyl)-","Dewar, Fonken, et al., 1976"
 70058-03-6,, C,8.23 ¡À 0.01,PE,"Hexa-2-yn-4-ene, 4-ethyl-,(E)-","Carlier, Mouvier, et al., 1979"
 70058-02-5,, C,8.28 ¡À 0.01,PE,"Hexa-2-yn-4-ene, 4-ethyl-, (Z)-","Carlier, Mouvier, et al., 1979"
 61885-54-9,Vertical value, C,8.9,PE,Bicyclo[4.1.1]oct-3-ene,"Gleiter, Bischof, et al., 1977"
 250-22-6,, C,8.75,PE,Tricyclo[3.2.1.0,"Bodor, Dewar, et al., 1970"
 59020-33-6,LBLHLM, C,8.8,PE,"1,1'-Bicyclopropyl, 1,1'-dimethyl-","Spanget-Larsen, Gleiter, et al., 1982"
 54376-39-5,Vertical value, C,9.22,PE,"Cyclopropane, tetramethylmethylene-","Kindermann, Poppek, et al., 1990"
 7078-34-4,LLK, C,9.6,PE,Bicyclo[4.1.1]octane,"Gleiter, Bischof, et al., 1977"
 52708-22-2,Vertical value, C,9.4,PE,"Cyclobutane,3-ethenyl-1,1-dimethyl-","Bruckmann and Klessinger, 1978"
 927-99-1,, C,9.171 ¡À 0.008,PE,"3-Hexyne, 2,5-dimethyl-","Carlier, Dubois, et al., 1975"
 32461-38-4, , C,7.9,PE,"(Z)-2,4-Hexadiene, 2,3-dimethyl-","Werstiuk, Clark, et al., 1990"
 82937-01-7, , C,7.6,PE,"(E)-2,4-Hexadiene, 2,4-dimethyl-","Werstiuk, Clark, et al., 1990"
 82937-00-6, , C,7.9,PE,"(Z)-2,4-Hexadiene, 2,4-dimethyl-","Werstiuk, Clark, et al., 1990"
 59681-35-5, , C,7.5,PE,"(E)-2,4-Hexadiene, 2,3-dimethyl-","Werstiuk, Clark, et al., 1990"
 36320-14-6,LLK, C,8.43,PE,"(E)-1,3-Hexadiene, 5,5-dimethyl-","Masclet, Mouvier, et al., 1981"
 40095-05-4,LLK, C,8.02,PE,"4-Methyl-1,3-heptadiene, trans","Masclet, Mouvier, et al., 1981"
 59697-92-6,LLK, C,8.46,PE,"(Z)-5,5-Dimethyl-1,3-hexadiene","Masclet, Mouvier, et al., 1981"
 1121-35-3,Vertical value, C,8.46,PE,"Cyclopropane, 1,1-dimethyl-2-(1-methylethenyl)-","Kindermann, Poppek, et al., 1990"
 175-56-4,, C,9.45,PE,Spiro[3.4]octane,"Bischof, Gleiter, et al., 1974"
 3008-32-0,, C,9.9 ¡À 0.1,EI,Perfluoro-p-quaterphenyl,"Cotter, Soc. 1965"
 2587-42-0,Vertical value; , C,7.55,PE,"Diazene, bis[4-(hexyloxy)phenyl]-, 1-oxide","Millefiori, Ciliberto, et al., 1981"
 135-70-6,RDSH, C,8.08 ¡À 0.05,EI,"1,1':4',1'':4'',1'''-Quaterphenyl","Gallegos, 1967"
 641-96-3,, C,8.52 ¡À 0.05,EI,"1,1':2',1'':2'',1'''-Quaterphenyl","Gallegos, 1967"
 1166-18-3,, C,8.51 ¡À 0.05,EI,"m,m-Quaterphenyl","Gallegos, 1967"
 3040-71-9,Vertical value, C,7.28,PE,"Tetraphosphetane,tetracyclohexyl-","Cowley, Dewar, et al., 1978"
 128-66-5,, C,8,PE,"dibenzo[b,def]chrysene-7,14-dione","Traven, Safronov, et al., 1991"
 52882-86-7,, C,8.4,EI,"Pyridine,1,2,3,4-tetrahydro-1-[[2'-(1-piperidinylcarbonyl)[1,1'-biphenyl]-2-carbonyl]-","Bohlmann, Herrmann, et al., 1974"
 66949-28-8,Vertical value, C,7.37,PE,"Cyclohexanamine, N-(triphenylphosphoranylidene)-","Starzewski and Dieck, 1979"
 191-07-1,LLK, C,7.29,PE,Coronene,"Clar, Robertson, et al., 1981"
 5385-26-2,Vertical value, C,7.45,PE,"Tribenzo[a,e,i]cyclododecene,5,6,11,12,17,18-hexadehydro-","Wirz, 1976"
 29571-17-3,, C,7.67,PE,"Naphthalene, 1,1'-(1,4-butanediyl)bis-","Berkowitz, Dehmer, et al., 1973"
 3029-42-3,, C,7.07,PE,"Benzene,1,1'-(1,3,5,7,9,11-dodecahexaene-1,12-diyl)bis-","Hudson, Ridyard, et al., 1976"
 37299-12-0,, C,5.89 ¡À 0.11,EI,"Chromium, tetracarbonylbis[(1,2,3,4,5-¦Ç)-1,2,3,4,5-pentamethyl-2,4-cyclopentadien-1-yl]di-, (Cr-Cr)","Efraty, Huang, et al., 1977"
 113566-60-2,Vertical value, C,6.2,PE,"Ruthenium, bis(¦Ç","Stahl, Ma, et al., 1987"
 1104-21-8,Vertical value, C,6.9,PE,"4,4',4''-phosphinetriyltris[N,N-dimethylaniline]","Weiner, Lattman, et al., 1975"
 38446-41-2,, C,7.91,CTS,"Disilane,1,1,2,2-tetramethyl-1,2-di-1-naphthalenyl-","Pitt, Carey, et al., 1972"
 16986-00-8, , C,8.1,PE,"Cobalt, (cadmium)octacarbonyldi-, (2Co-Cd)","Louwen, Andrea, et al., 1982"
 15024-70-1,, C,7.81 ¡À 0.05,EI,Diphenylphosphino(phenylthio)diiron hexacarbonyl,"Junk, Preston, et al., 1970"
 57820-94-7,Vertical value, C,5.52,PE,"Chromium, bis(diphenyl ether)-","Cabelli, Cowley, et al., 1982"
 905-95-3,, C,7.1 ¡À 0.1,EI,"6H-Benzo[b]naphtho[2,3-h]carbazole","Riepe and Zander, 1969"
 314-08-9,, C,7.3 ¡À 0.1,EI,"Anthra[2,3-c]carbazole","Riepe and Zander, 1969"
 319-23-3,, C,6.5 ¡À 0.1,EI,"Anthra[2,3-b]carbazole","Riepe and Zander, 1969"
 37274-12-7,Vertical value; , C,6.05,PE,Bis(¦Ç,"Green, Payne, et al., 1983"
 63230-70-6,Vertical value; , C,6.03,PE,Bis(¦Ç,"Green, Payne, et al., 1983"
 12715-87-6,Vertical value, C,5.73,PE,"Uranium, bis[(1,2,3,4,5,6,7,8-¦Ç","Green, Payne, et al., 1983"
 67634-82-6,LLK, C,6.5,PE,"Dichromium, tetrakis[¦Ì-(6-methyl-2(1H)-pyridinonato-","Bursten, Cotton, et al., 1979"
 72070-57-6,Vertical value, C,6,PE,"Molybdenum,(chromium)tetrakis[¦Ì-(6-methyl-2(1H)-pyridinonato-N","Bursten, Cotton, et al., 1979"
 1048-05-1,LBLHLM, C,8.1,PE,"Germane, tetraphenyl-","Novak and Potts, 1984"
 595-90-4,LBLHLM, C,8.1,PE,"Stannane, tetraphenyl-","Novak and Potts, 1984"
 1048-08-4,LBLHLM, C,8.6,PE,"Silane, tetraphenyl-","Novak and Potts, 1984"
 12203-87-1,Vertical value, C,6.45,PE,"Iron, tetra-¦Ì3-carbonyltetrakis(¦Ç5-2,4-cyclopentadien-1-yl)tetra-, tetrahedro","Symon and Waddington, 1975"
 595-89-1,LBLHLM, C,8,PE,"Plumbane, tetraphenyl-","Novak and Potts, 1984"
 88821-81-2,Vertical value, C,6.16,PE,"Tungsten, (¦Ç","Bandy, Mtetwa, et al., 1985"
 67634-80-4,LLK, C,5.5,PE,"Dimolybdenum,tetrakis[¦Ì-(6-methyl-2(1H)-pyridinonato-]","Bursten, Cotton, et al., 1979"
 67577-06-4,Vertical value, C,5.6,PE,"Tungsten, tetrakis[¦Ì-(6-methyl-2(1H)-pyridinonato-N","Bursten, Cotton, et al., 1979"
 73502-98-4,, C,8.59,PE,"1,3,5,2,4,6-Triazatriphosphorine,2,4-difluoro-2,2,4,4,6,6-hexahydro-2,4,6,6-tetraphenyl-","Allen and Green, 1980"
 2325-27-1,Vertical value, C,6.95,PE,"Benzenamine, N-(triphenylphosphoranylidene)-","Starzewski and Dieck, 1979"
 14724-91-5,Vertical value; , C,7.25,PE,"Syn-(5,16:8,13)-diethenodibenzo[a,g]cyclododecene 6,7,14,15-tetrahydro-","Kovac, Allan, et al., 1980"
 54835-57-3, , C,6.8,PE,Pentacyclo[10.4.4.4,"Kovac, Allan, et al., 1980"
 73608-51-2,LLK, C,7.3,PE,"Pentacyclo[10.4.4.4<sup>4,9</sup>.0<sup>6,23</sup>.0<sup>15,19</sup>]tetracosa-4,6,8,12,14,16,17,21,23-decaene","Kovac, Allan, et al., 1980"
 73608-52-3,Vertical value, C,6.6,PE,"Pentacyclo[13.3.2.2<sup>6,10</sup>.1<sup>3,18</sup>.1<sup>9,12</sup>]tetracosa-1,3(21),6,8,10,12(22),15,17,19,23-decaene","Kovac, Allan, et al., 1980"
 52882-87-8,, C,8.4,EI,"Piperidine, 1,1'-([1,1'-biphenyl]-4,4'-diyldicarbonyl)bis-","Bohlmann, Herrmann, et al., 1974"
 52882-84-5,, C,8.5,EI,"Piperidine,1,1'-([1,1'-biphenyl]-2,2-diyldicarbonyl)bis-","Bohlmann, Herrmann, et al., 1974"
 7130-24-7,LLK, C,7,PE,Pentacyclo[11.5.3.3,"Kovac, Allan, et al., 1980"
 17341-02-5,LLK, C,7.3,PE,"5,16:8,13-Diethenodibenzo[a,g]cyclododecane, 6,7,14,15-tetrahydro","Kovac, Allan, et al., 1980"
 54911-02-3, , C,7.1,PE,Pentacyclo[10.4.4.4,"Kovac, Allan, et al., 1980"
 52882-85-6,, C,8.4,EI,"Pyridine,1,1'-([1,1'-biphenyl]-2,2'diyldicarbonyl)bis[1,2,3,4-tetrahydro-","Bohlmann, Herrmann, et al., 1974"
 52882-88-9,, C,8.3,EI,"Pyridine,1,1'-([1,1'-biphenyl]-4-4'diyldicarbonyl)bis[1,2,3,4-tetrahydro-","Bohlmann, Herrmann, et al., 1974"
 75310-08-6,, C,6.49 ¡À 0.02,PE,"Rhodium, tetrakis(6-methyl-2-pyridinonato)-N","Berry, Garner, et al., 1980"
 67634-84-8,Vertical value, C,5.3,PE,"Tungsten,tetrakis[¦Ì-(6-methyl-2(1H)-pyridinonato-N","Bursten, Cotton, et al., 1979"
 60144-50-5,LLK, C,7.3,PE,"[2.2.2.2.2.2](1,2,3,4,5,6)Cyclophane","Kovac, Mohraz, et al., 1980"
 77897-20-2,LLK, C,6.9,PE,"Tricyclo[8.2.2.2<sup>4,4</sup>]hexadeca-5,6,10,12,13,15-hexaene, 5,6,11,12,13,14,15-octamethyl-","Zhong-zhi, Kovak, et al., 1981"
 7099-19-6,, C,8.52 ¡À 0.10,EI,Tricyclooctabenzene,"Meier, Heiss, et al., 1968"
 69021-85-8,, C,7.9 ¡À 0.3,EI,"Neodymium,tris[(1,2,3,4,5-¦Ç)-1-(1-methylethyl)-2,4-cyclopentadien-1-yl]-","Gaivoronskii, Gavrishchuk, et al., 1978"
 68959-87-5,, C,8.0 ¡À 0.3,EI,"Lanthanum, tris[(1,2,3,4,5-¦Ç","Gaivoronskii, Gavrishchuk, et al., 1978"
 12243-39-9,RDSH, C,5.19 ¡À 0.05,EI,"Chromium,bis[(1,2,3,4,5-¦Ç","Herberich and Muller, 1969"
 13964-88-0, , C,7.8,PE,"Cobalt, octacarbonyl(mercury)di-, (2co-hg)","Louwen, Andrea, et al., 1982"
 189-64-0,LLK, C,6.82,PE,"3,4:8,9-Dibenzopyrene","Clar and Schmidt, 1979"
 16985-99-2,, C,8,PE,"Cobalt, octacarbonyl(zinc)di-, (2Co-Zn)","Louwen, Andrea, et al., 1982"
 215-29-2,, C,7.8 ¡À 0.1,EI,"1,2:3,4:6,7-Tribenzophenazine","Gallegos, 1968"
 10210-68-1,RDSH, C,8.3 ¡À 0.1,EI,Dicobalt octacarbonyl,"Bidinosti and McIntyre, 1970"
 192-51-8,LLK, C,7.39,PE,"Dibenzo[fg,op]naphthacene","Clar and Schmidt, 1979"
 193-09-9,LLK, C,7.35,PE,"naphtho[2,3-e]pyrene","Clar and Schmidt, 1979"
 192-65-4,LLK, C,7.11,PE,"1,2:4,5-Dibenzopyrene","Clar and Schmidt, 1979"
 196-42-9,LLK, C,6.82,PE,"Naphtho[2,3-a]pyrene","Clar and Schmidt, 1979"
 189-55-9,LLK, C,6.95,PE,"Dibenzo(a,i)pyrene","Clar and Schmidt, 1979"
 191-30-0,, C,7.27,CTS,"1,2,9,10-Dibenzopyrene","Briegleb, 1964"
 191-85-5, , C,6.71,PE,Benzo[a]perylene,"Clar and Schmidt, 1977"
 197-70-6,LLK, C,6.89,PE,Benzo[b]perylene,"Clar and Schmidt, 1977"
 15065-28-8,LBLHLM, C,7.58,PE,"Cyclobuta[1,2-a:3,4-a']diacenaphthylene, 6b,6c,12b,12c-tetrahydro- (6b¦Á,6c¦Á,12b¦Á,12c¦Á)-","Gleiter and Gubernator, 1982"
 51557-75-6,Vertical value, C,7.2,PE,Pentacyclo[11.5.3.3,"Kovac, Allan, et al., 1980"
 159-68-2,Vertical value, C,7.85,PE,"5,5'-Spirobi(dibenzosilole)","Schweig, Weidner, et al., 1973"
 43012-17-5,Vertical value; , C,7.4,PE,"Pentacyclo[10.4.4.4<sup>4,9</sup>.0<sup>6,22</sup>.0<sup>15,19</sup>-]tetracosa-2,4,6,8,10,12,14,16,17,19,21,23-dodecane","Kovac, Allan, et al., 1980"
 14620-98-5,LBLHLM, C,7.48,PE,"Cyclobuta[1,2-a:3,4-a']diacenaphthylene, 6b,6c,12b,12c-tetrahydro- (6b¦Á,6c¦Â,12b¦Â,12c¦Á)-","Gleiter and Gubernator, 1982"
 83-80-7,Vertical value, C,8.14,PE,"1,5-Dibenzoylnaphthalene","Traven, Safronov, et al., 1991"
 74317-37-6,Vertical value, C,7.7,PE,"Azulene,1,3-dibenzoyl-","Dougherty, Lewis, et al., 1980"
 64031-65-8,Vertical value, C,6.97,PE,"25,26-Diazapentacyclo[19.3.1.1","Reingold, Schmidt, et al., 1979"
 84-58-2,Vertical value, C,10.58 ¡À 0.05,PE,"1,2-Dichloro-4,5-dicyano-p-benzoquinone","Dougherty and McGlynn, 1977"
 7787-47-5,LLK, BeCl,11.15,PE,beryllium chloride,"Lee and Potts, 1979"
 13598-12-4,, BeClF,13.0 ¡À 1.0,EI,Beryllium chloride fluoride,"Farber and Srivastava, 1974"
 117-08-8,RDSH, C,10.8 ¡À 0.2,EI,"1,3-Isobenzofurandione, 4,5,6,7-tetrachloro-","Grutzmacher and Hubner, 1969"
 13597-97-2,LLK, BeH,8.21,EVAL,Beryllium monohydride,"Huber and Herzberg, 1979"
 16244-53-4,, C,7.60 ¡À 0.05,EI,"Molybdenum,tetracarbonylbis(triphenylphosphine)-","Paetzold and Abd-el-Mottaleb, 1975"
 7235-40-7,, C,6.5,PE,¦Â Carotene,"Dougherty, Younathan, et al., 1978"
 188-73-8,, C,6.11 ¡À 0.02,PE,"Benzo[1,2,3-cd:4,5,6-c'd']diperylene","Clar and Schmidt, 1978"
 61349-30-2,, CGe,8.6 ¡À 0.3,EI,Trigermanium monocarbide,"Drowart, DeMaria, et al., 1959"
 12334-26-8,RDSH, CGe,10.3 ¡À 0.3,EI,Germanium monocarbide,"Drowart, DeMaria, et al., 1959"
 12011-72-2,, CGeSi,9.6 ¡À 0.3,EI,Germanium carbide silicide,"Drowart, DeMaria, et al., 1959"
 16743-03-6,, C,7.50 ¡À 0.05,EI,"Tungsten,tetracarbonylbis(triphenylphosphine)-","Paetzold and Abd-el-Mottaleb, 1975"
 20910-35-4,Vertical value, C,6.19 ¡À 0.03,PE,"2,3,7,8,12,13,17,18-Octaethyl-21H,23H-porphine magnesium(II)","Kitagawa, Morishima, et al., 1979"
 14409-63-3,Vertical value, C,6.31 ¡À 0.03,PE,Copper octaethylporphyrin,"Kitagawa, Morishima, et al., 1979"
 61085-06-1,Vertical value, C,6.06 ¡À 0.03,PE,"Iron,[2,3,7,8,12,13,17,18-octaethyl-21H,23H-porphinato(2-)-N","Kitagawa, Morishima, et al., 1979"
 17632-18-7,Vertical value, C,6.29 ¡À 0.03,PE,Zn-OEP complex,"Kitagawa, Morishima, et al., 1979"
 24804-00-0,Vertical value, C,6.37 ¡À 0.03,PE,"Palladium,[2,3,7,8,12,13,17,18-octaethyl-21H,23H-porphinato(2-)-N","Kitagawa, Morishima, et al., 1979"
 79073-99-7, , C,6.8,PE,"Diphosphene, bis(2,4,6-tri-tert-butylphenyl)-","Gonbeau, Pfister-Guillouzo, et al., 1983"
 83466-54-0, , C,6.9,PE,"(E)-Diphosphene, bis[2,4,6-tris(1,1-dimethylethyl)phenyl]-","Gleiter, Friedrich, et al., 1984"
 2683-82-1,Vertical value, C,6.39 ¡À 0.03,PE,"2,3,7,8,12,13,17,18-Octaethyl-21H,23H-porphin","Kitagawa, Morishima, et al., 1979"
 24803-99-4,Vertical value, C,6.38 ¡À 0.03,PE,Nickel octaethylporphyrin,"Kitagawa, Morishima, et al., 1979"
 188-00-1,Vertical value, C,7.1,PE,"Dibenzo[fg,ij]phenanthro[9,10,1,2,3-pqrst]pentaphene","Clar and Schmidt, 1976"
 191-48-0,, C,7.3 ¡À 0.1,EI,"Diacenaphtho[1,2-j:1',2'-l]fluoranthene","Gallegos, 1968"
 313-62-2,LLK, C,6.88,PE,"Tribenzo[a,d,g]coronene","Clar and Schmidt, 1977"
 4499-83-6,, C,7.67 ¡À 0.05,EI,"1,1':4',1'':4'',1''':4''',1'''':4'''',1'''''-Sexiphenyl","Gallegos, 1967"
 17632-19-8,Vertical value, C,6.09 ¡À 0.03,PE,"Aetio-porphyrin, Co-derivative","Kitagawa, Morishima, et al., 1979"
 57525-48-1,, C,6.7,CTS,"Cyclopenta-1,3-dienide,1,4-diphenyl-5-quinolinium-2,3-(naphtha-1,8-diyl),inner salt","Kreicberga, Kampars, et al., 1975"
 57525-47-0,, C,6.72,CTS,"Cyclopenta-1,3-dienide,1,4-diphenyl-5-isoquinolinium-2,3-(naphtha-1,8-diyl),inner salt","Kreicberga, Kampars, et al., 1975"
 87961-60-2,Vertical value, C,5.17,PE,"Cobalt, ¦Ç","Dudeney, Green, et al., 1983"
 36474-85-8,LLK, C,6.82,PE,"Dinaphtho[1,2,3-fg:1',2',3'-qr]pentacene","Clar and Schmidt, 1977"
 72382-90-2,, C,6.88,PE,"Tetrabenzo[a,e,klm,s]picene","Clar and Schmidt, 1979"
 192-46-1,, C,6.74,PE,"Dibenzo[j,xyz]heptaphene","Clar and Schmidt, 1979"
 31541-10-3,LLK, C,6.95,PE,"Dinaphtho[3,2,1-fg:1',2',3'-st]pentacene","Clar and Schmidt, 1979"
 197-73-9, , C,6.68,PE,"Dibenzo[hi,wx]heptacene","Clar and Schmidt, 1977"
 1184-10-7,, C,8.83 ¡À 0.05,EI,Cyclo-tris(diphenoxyphosphonitrile),"Branton, Brion, et al., 1970"
 53086-28-5,LLK, C,6.85 ¡À 0.04,PE,"Dinaphtho[8,1,2-abc:2',1',8'-klm]coronene","Boschi, Clar, et al., 1974"
 1450-23-3,, C,8.16 ¡À 0.15,EI,"Disilane, hexaphenyl-","Gaidis, Briggs, et al., 1971"
 190-47-6,, C,6.70 ¡À 0.04,PE,"Dinaphtho[8,1,2-abc:8',1',2'-jkl]coronene","Boschi, Clar, et al., 1974"
 114055-40-2,, C,6.32,PE,Bis[(tert-butyldimethylsiloxy)phthalocyaninatogermyl] ether,"Doris, Ciliberto, et al., 1986"
 24917-50-8,Vertical value, C,7.12,PE,"Platinum, bis(p-methyl-diphenylphosphine)dimethyl-","Yang, Bancroft, et al., 1990"
 22900-44-3,Vertical value, C,7.1,PE,"21,22,23,24-Tetraoxapentacyclo[16.2.1.1","Baker, Armen, et al., 1983"
 63928-77-8,, C,6.8,EI,"Chromium,dicarbonyl[(1,2,3,4,5,6-¦Ç","Simonneaux, Jaouen, et al., 1977"
 57546-01-7,, C,7.4,EI,"Chromium,(carbonothioyl)carbonyl[(1,2,3,4,5,6-¦Ç)-methyl benzoate](triphenyl phosphite-p)-","Simonneaux, Jaouen, et al., 1977"
 52719-55-8,Vertical value, C,7.68 ¡À 0.05,PE,"Benzene,1,1',1''-methylidynetris[2,4,6-trimethyl-","Distefano, Pignataro, et al., 1976"
 63796-68-9,Vertical value, C,7.58,PE,"Iron,dicarbonylbis(diphenylcarbamodithioato-s,s')-(oc-6-21)-","Cauletti, Duffy, et al., 1977"