CAS,Comment,Formula,IE,Method,Name,Refer
 496-16-2,LLK, C,7.65,PE,"Benzofuran, 2,3-dihydro-","Baker, Armen, et al., 1981"
 7140-63-8,Vertical value, C,8.56,PE,"9-Oxabicyclo[4.2.1]nona-2,4,7-triene","Schmidt, Schweig, et al., 1976"
 4383-15-7,, C,8.01 ¡À 0.03,EI,1-Phenylethenol,"Turecek, 1986"
 96-09-3,Vertical value, C,9.23,PE,"Oxirane, phenyl-","Akiyama, Li, et al., 1979"
 56582-02-6,Vertical value, C,8.87 ¡À 0.03,PE,"7-Oxabicyclo[2.2.1]hept-2-ene,5,6-bis(methylene)-","Pfeffer, Klessinger, et al., 1975"
 29639-53-0,Vertical value, C,8.61 ¡À 0.03,PE,"2,4,6-Cycloheptatriene-1-one,2-methyl-","Allan, Heilbronner, et al., 1975"
 97229-08-8,LBLHLM, C,8.7,PE,Pentacyclo[4.2.0.0,"Honegger, Heilbronner, et al., 1985"
 127793-16-2, , C,8.7,PE,"1-Oxa-6-thiacyclodeca-3,8-diyne","Gleiter, Rittinger, et al., 1991"
 4365-04-2,LLK, C,8.7 ¡À 0.1,EI,2-Phenylethenol,"Dallinga, Nibbering, et al., 1981"
 4531-35-5,, C,11.04 ¡À 0.05,EI,"Germane, tetraethynyl-","MacLean and Sacher, 1974"
 33056-62-1,, C,8.32,PE,Cyclobutadienecarboxaldehydeiron tricarbonyl,"Dewar and Worley, 1969"
 71127-65-6,Vertical value, C,7.4,PE,"Chromium,pentacarbonyl(1H-pyrazole-N","Daamen, Oskam, et al., 1979"
 28165-73-3,, C,8.07 ¡À 0.03,EI,"Phenol,2,6-diiodo-,acetate","Benezra and Bursey, 1972"
 36914-80-4,, C,7.90 ¡À 0.03,EI,"Phenol,2,4-diiodo-,acetate","Benezra and Bursey, 1972"
 272-35-5,, C,7.76 ¡À 0.05,PE,Benzo[b]tellurophene,"Muller, 1975"
 28752-81-0,Vertical value, C,8.72,PE,"Mercury,di-3-thienyl-","Colonna, Distefano, et al., 1979"
 19591-17-4,, C,8.45,EI,"Acetamide,N-(2-iodophenyl)-","Baldwin, Loudon, et al., 1976"
 622-50-4,, C,7.87 ¡À 0.03,EI,N-(4-Iodophenyl)acetamide,"Benezra and Bursey, 1971"
 5980-89-2,Vertical value, C,8.47,PE,"Mercury,di-2-thienyl-","Colonna, Distefano, et al., 1979"
 28165-71-1,, C,8.68 ¡À 0.03,EI,"Phenol, 2,6-dichloro-, acetate","Benezra and Bursey, 1972"
 6341-97-5,, C,8.16 ¡À 0.03,EI,"Phenol, 2,4-dichloro-, acetate","Benezra and Bursey, 1972"
 28648-89-7,LBLHLM, C,9,PE,"4,5'-Bipyrimidine","Barone, Cauletti, et al., 1982"
 39184-84-4,, C,8.1,EI,"Ethanethioamide,N-(2-iodophenyl)-","Baldwin, Loudon, et al., 1976"
 115406-90-1,Vertical value, C,7.97,PE,"Rhodium, ¦Ç","Lichtenberger and Renshaw, 1991"
 455-18-5,RDSH, C,10.61 ¡À 0.05,EI,"Benzonitrile, 4-(trifluoromethyl)-","Buchs, 1970"
 97229-07-7,LBLHLM, C,9.2,PE,Pentacyclo[4.2.0.0,"Honegger, Heilbronner, et al., 1985"
 28469-92-3,, C,8.70 ¡À 0.02,PE,"2,6-Dichlorostyrene","Maier and Turner, 1973"
 34671-83-5,LBLHLM, C,8.3,PE,"2,2'-Bipyrimidine","Barone, Cauletti, et al., 1982"
 2426-94-0,LBLHLM, C,9,PE,"4,4'-Bipyrimidine","Barone, Cauletti, et al., 1982"
 56598-46-0,LBLHLM, C,9,PE,"5,5'-Bipyrimidine","Barone, Cauletti, et al., 1982"
 56595-10-9,Vertical value, C,9.3,PE,"Quinazoline,2,4-difluoro-","Van Den Ham, Beerlage, et al., 1975"
 7066-36-6,Vertical value, C,9.3,PE,"Quinoxaline,2,3-difluoro-","Van Den Ham and Van Der Meer, 1973"
 56595-11-0,Vertical value, C,9.26,PE,"1,8-Naphthyridine,2,7-difluoro-","Van Den Ham, Beerlage, et al., 1975"
 40115-57-9,, C,9.47 ¡À 0.02,PI,"Benzene,1,4-dichloro-2,5-dimethyl-3,6-dinitro-","Potapov, Kardash, et al., 1972"
 40200-67-7,, C,9.52 ¡À 0.02,PI,"Benzene,1,3-dichloro-4,6-dimethyl-2,5-dinitro-","Potapov, Kardash, et al., 1972"
 5339-26-4,, C,9.6,EI,"Benzene, 1-(2-bromoethyl)-4-nitro-","Grutzmacher, 1970"
 4146-24-1,Vertical value, C,8.5,PE,"Benzothiazole,6-chloro-2-methyl-","Salmona, Faure, et al., 1975"
 621-38-5,, C,8.6 ¡À 0.2,EI,"Acetamide, N-(3-bromophenyl)-","Gamble, Gilbert, et al., 1970"
 103-88-8,LLK, C,8.17 ¡À 0.03,EI,"Acetamide, N-(4-bromophenyl)-","Benezra and Bursey, 1971"
 614-76-6,, C,8.5,EI,"Acetamide, N-(2-bromophenyl)-","Baldwin, Loudon, et al., 1976"
 1529-41-5,RDSH, C,9.48 ¡À 0.05,EI,"Benzeneacetonitrile, 3-chloro-","Buchs, 1970"
 140-53-4,RDSH, C,9.43 ¡À 0.05,EI,"Benzeneacetonitrile, 4-chloro-","Buchs, 1970"
 16799-05-6,, C,9.1,EI,"Benzene, 1-(2-bromoethyl)-3-chloro-","Grutzmacher, 1970"
 6529-53-9,, C,8.8,EI,"Benzene, 1-(2-bromoethyl)-4-chloro-","Grutzmacher, 1970"
 62635-46-5,, C,8.05,EI,"Ethanethioamide,N-(2-bromophenyl)-","Baldwin, Loudon, et al., 1976"
 4939-73-5,, C,8.4 ¡À 0.1,EI,4-Cyanobenzyl radical,"Harrison, Kebarle, et al., 1961"
 61142-85-6,, C,8.6 ¡À 0.1,EI,3-Cyanobenzyl radical,"Harrison, Kebarle, et al., 1961"
 5585-19-3,Vertical value, C,8.13,PE,"1,3,4-Thiadiazole-2-thiol, 5-phenyl-","Guimon, Pfister-Guillouzo, et al., 1975"
 459-22-3,RDSH, C,9.65 ¡À 0.04,EI,"Benzeneacetonitrile, 4-fluoro-","Buchs, 1970"
 91-19-0,LLK, C,9.01,PE,Quinoxaline,"Brogli, Heilbronner, et al., 1972"
 28752-80-9,Vertical value, C,8.7,PE,"Mercury, di-3-furanyl-","Colonna, Distefano, et al., 1979"
 2423-66-7,Vertical value, C,7.98 ¡À 0.05,PE,Quindoxin,"Maier, Muller, et al., 1975"
 28752-79-6,Vertical value, C,8.39,PE,"Mercury, di-2-furanyl-","Colonna, Distefano, et al., 1979"
 555-21-5,RDSH, C,10.11 ¡À 0.04,EI,"Benzeneacetonitrile, 4-nitro-","Buchs, 1970"
 2941-63-1,Vertical value, C,9.15,PE,"Benzothiazole, 2-methyl-6-nitro-","Salmona, Faure, et al., 1975"
 27305-49-3,Vertical value, C,8.18 ¡À 0.05,PE,"1,5-Naphthyridine 1,5-dioxide","Maier, Muller, et al., 1975"
 6789-51-1,Vertical value, C,9.8 ¡À 0.1,PE,"5H-Pyrrolo[3,4-b]pyridine-5,7(6H)-dione,6-methyl-","Bigotto, Galasso, et al., 1978"
 3282-32-4,RDSH, C,9.22 ¡À 0.04,EI,Diazoacetophenone,"Foffani, Pignataro, et al., 1963"
 6935-29-1,Vertical value, C,8.62 ¡À 0.05,PE,"Quinoxaline, 1-oxide","Maier, Muller, et al., 1975"
 3034-34-2,Vertical value, C,9.99,PE,p-cyanobenzamide,"McAlduff, Lynch, et al., 1978"
 254-79-5, , C,8.8,PE,"1,5-Naphthyridine","Van Den Ham and Van Der Meer, 1972"
 404-24-0,Vertical value; , C,8.93 ¡À 0.05,PE,"Acetamide, 2,2,2-trifluoro-N-phenyl-","Szepes, Distefano, et al., 1974"
 25660-64-4,LLK, C,8.1,PE,"1,2,3-Selenadiazole, 4-phenyl-","Bock, Aygen, et al., 1980"
 253-82-7,LLK, C,9.00 ¡À 0.02,PE,Quinazoline,"Brogli, Heilbronner, et al., 1972"
 253-52-1,LLK, C,8.4,PE,Phthalazine,"Van Den Ham and Van Der Meer, 1972"
 253-72-5, , C,9,PE,"1,6-Naphthyridine","Van Den Ham and Van Der Meer, 1972"
 253-45-2, , C,8.8,PE,"2,7-Naphthyridine","Van Den Ham and Van Der Meer, 1972"
 253-69-0, , C,8.99,PE,"1,7-Naphthyridine","Van Den Ham and Van Der Meer, 1972"
 253-50-9,Vertical value, C,8.87,PE,"2,6-Naphthyridine","Van Den Ham and Van Der Meer, 1972"
 254-60-4, , C,8.8,PE,"1,8-Naphthyridine","Van Den Ham and Van Der Meer, 1972"
 253-66-7,RDSH, C,8.51,PE,Cinnoline,"Dewar and Worley, 1969"
 1801-14-5,Vertical value, C,8.48,PE,"Benzenamine, 2,3,4,5,6-pentafluoro-N,N-dimethyl-","Furin, Sultanov, et al., 1987"
 272-30-0,, C,8.03 ¡À 0.05,PE,Benzo[b]selenophene,"Muller, 1975"
 53477-04-6,LLK, C,7.8,EI,"(E),(E)-Octa-3,5,7-triene-1-yne","Koppel, Schwarz, et al., 1974"
 4026-23-7,LLK, C,7.5,PE,"Bicyclo[4.2.0]octa-1,3,5,7-tetraene","Koenig, Imre, et al., 1979"
 536-74-3,LL, C,8.82 ¡À 0.02,PE,Phenylethyne,"Lichtenberger, Renshaw, et al., 1993"
 1072-20-4,LLK, C,8.6,PE,"2,4,6-Octatriyne","Brogli, Heilbronner, et al., 1973"
 36914-78-0,, C,8.88 ¡À 0.03,EI,"Phenol,2,6-difluoro-,acetate","Benezra and Bursey, 1972"
 36914-77-9,, C,8.60 ¡À 0.03,EI,"Phenol,2,4-difluoro-,acetate","Benezra and Bursey, 1972"
 75571-85-6,Vertical value, C,8.82,PE,Beryllium(¦Ç,"Bohm, Gleiter, et al., 1980"
 1425-58-7,, C,8.24,PE,"[1,2]Azaborino[1,2-a][1,2]azaborine","Dewar and Worley, 1969"
 277-10-1,LBLHLM, C,8.6 ¡À 0.1,TRPI,Cubane,"Lifshitz and Eaton, 1983"
 20380-30-7,RDSH, C,8.20 ¡À 0.10,EI,Tricyclo[4.2.0.0,"Franklin and Carroll, 1969"
 629-20-9,LLK, C,8.03,PE,"1,3,5,7-Cyclooctatetraene","Fu and Dunbar, 1978"
 694-87-1,RDSH, C,8.74 ¡À 0.05,EI,"Bicyclo[4.2.0]octa-1,3,5-triene","Franklin and Carroll, 1969"
 500-24-3,LLK, C,8.23,PE,"Bicyclo[2.2.2]octa-2,5,7-triene","Haselbach, Heilbronner, et al., 1971"
 20380-31-8,RDSH, C,8.27 ¡À 0.10,EI,Tricyclo[4.2.0.0,"Franklin and Carroll, 1969"
 100-42-5,LL, C,8.464 ¡À 0.001,TE,Styrene,"Dyke, Ozeki, et al., 1992"
 6909-37-1,Vertical value, C,8.5,PE,"Cyclopropa[cd]pentalene, 2a,2b,4a,4b-tetrahydro-","Askani, Gleiter, et al., 1971"
 105961-79-3,Vertical value, C,8.88,PE,"Cyclopropane, 1-ethynyl-1-(1-propynyl-","Eckert-Maksie, Gleiter, et al., 1991"
 38898-42-9,Vertical value, C,8.48,PE,Tetracyclo[3.2.0.0,"Martin, Heller, et al., 1974"
 502-86-3,Vertical value; , C,7.87,PE,"1,4-Cyclohexadiene,3,6-bis(methylene)-","Dewar, 1982"
 35438-35-8, , C,7.9,PE,Tricyclo[4.1.1.0,"Gleiter, Bischof, et al., 1986"
 68344-46-7,LBLHLM, C,8.2,PE,"Cycloocta-1,5-dien-3-yne","Meier, Konig, et al., 1985"
 33284-11-6,LL, C,7.86,PE,"1,5-Dihydropentalene","Bally, Truttmann, et al., 1995"
 80339-91-9,LBLHLM, C,8.5,PE,"Cycloocta-1,3-dien-6-yne","Meier, Konig, et al., 1985"
 3227-91-6,, C,8.35,PE,"Cyclobutane,tetrakis(methylene)-","Bally, Buser, et al., 1978"
 30294-54-3,, C,7.98,PE,"1,2-Dihydropentalene","Bally, Truttmann, et al., 1995"
 20656-23-9,LLK, C,8.18,PE,Pentacyclo[3.3.0.0,"Gassman and Yamaguchi, 1979"
 37846-63-2,LLK, C,8.5,PE,"Bicyclo[2.2.1]hepta-2,5-diene,7-methylene","Hoffmann, Schuttler, et al., 1972"
 49852-40-6,LLK, C,8.9,PE,"1,5-Cyclooctadiyne","Bieri, Heilbronner, et al., 1974"
 61771-84-4,, C,7.48,PE,"1,4-Dihydropentalene","Bally, Truttmann, et al., 1995"
 74601-20-0,LBLHLM, C,8,PE,"Benzo[c]thiophene, 1,3,3a,4,7,7a-hexahydro-","Aitken, Gosney, et al., 1984"
 1455-20-5,, C,8.5 ¡À 0.2,EI,"Thiophene, 2-butyl-","Khvostenko, 1962"
 50700-93-1,Vertical value, C,8.26,PE,"Platinum, (¦Ì","Yang, Bancroft, et al., 1990"
 16351-47-6,, C,9.0 ¡À 0.2,PI,"1-Phenyl-1,7-dicarbadodecaborane","Orlov, Pustobaev, et al., 1988"
 16390-61-7,, C,9.3 ¡À 0.2,PI,"1-Phenyl-1,2-dicarbadodecaborane","Orlov, Pustobaev, et al., 1988"
 18389-95-2,LBLHLM, C,6.37 ¡À 0.05,EQ,"N,N'-Bipyrrolidine","Rumack, 1986"
 19403-24-8,Vertical value, C,7.89,PE,"3,4,5,6-Tetrahydro-3,3,6,6-tetramethylpyridazine","Houk, Chang, et al., 1975"
 3661-15-2,LBLHLM, C,6.71 ¡À 0.05,EQ,"1,6-Diazabicyclo[4.4.0]decane","Rumack, 1986"
 7123-92-4,, C,7.4 ¡À 0.1,LE,"9-Azabicyclo[3.3.1]non-9-yloxy,3-oxo-","Summermann and Deffner, 1975"
 34241-39-9,LLK, C,9.2,PE,(E)-Azobis(isobutyronitrile),"Houk, Chang, et al., 1975"
 61542-18-5,Vertical value, C,9.48,PE,"Butanoic acid, 2-(chloroamino)-2-methylpropyl ester","Gerson, Worley, et al., 1978"
 14040-77-8,, C,9.12,PE,"Ethanediamide, N,N'-dipropyl-","Meeks and McGlynn, 1975"
 54143-35-0,, C,7.86 ¡À 0.03,PE,"Pyridazine,3,4,5,6-tetrahydro-3,3,6,6-tetramethyl-1,2-dioxide","Bunzli, Olsen, et al., 1977"
 54143-34-9,Vertical value; , C,~9.13 ¡À 0.03,PE,"Pyridazine, 3,4,5,6-tetrahydro-3,3,6,6-tetramethyl-1-oxide","Bunzli, Olsen, et al., 1977"
 82378-29-8,, C,8.5 ¡À 0.2,PI,"9-Phenyl-1,7-dicarbadodecaborane","Orlov, Pustobaev, et al., 1988"
 42568-27-4,, C,9.0 ¡À 0.2,PI,"2-Phenyl-1,7-dicarbadodecaborane","Orlov, Pustobaev, et al., 1988"
 75563-94-9,, C,8.4 ¡À 0.2,PI,"9-Phenyl-1,2-dicarbadodecaborane","Orlov, Pustobaev, et al., 1988"
 14287-92-4,LBLHLM, C,6.45 ¡À 0.05,EQ,"2,3-Diazabicyclo[2.2.2]octane, 2,3-dimethyl-","Rumack, 1986"
 16390-62-8,, C,9.0 ¡À 0.2,PI,"3-Phenyl-1,2-dicarbadodecaborane","Orlov, Pustobaev, et al., 1988"
 49840-69-9,LLK, C,7.58,PE,"1H,5H-Pyrazolo[1,2-a][1,2]diazepine,hexahydro-","Nelsen, Peacock, et al., 1976"
 36566-74-2,, C,7.8 ¡À 0.1,PI,"Butanal, 2-butenylhydrazone","Zenkevich, Isidorov, et al., 1986"
 109153-24-4,Vertical value, C,7.06,PE,"Imidazole, tetrahydro-1,3-dimethyl-2-(isopropylidene)","Quast, Ach, et al., 1993"
 53779-85-4,Vertical value, C,7.46,PE,"2,3-Diazabicyclo[2.2.2]octane,2,3-dimethyl-,trans-","Nelsen and Buschek, 1974"
 24764-90-7,Vertical value, C,8.9,PE,"2-Propanamine, N,N'-1,2-ethanediylidenebis-","tom Dieck, Franz, et al., 1975"
 28942-55-4,Vertical value, C,7.68,PE,"2H-Azirin-3-amine,N,N-diethyl-2,2-dimethyl-","Nelsen, Peacock, et al., 1978"
 67092-90-4,Vertical value, C,8.78,PE,"Piperidine, 1-azetidino-","Nelsen, 1984"
 14003-02-2,Vertical value, C,7.92,PE,"Pyridazine,1,2,3,6-tetrahydro-1,2,4,5-tetramethyl-","Nelsen and Buschek, 1974"
 70873-22-2,Vertical value, C,7.69,PE,"1,2-Diazabicyclo[3.3.1]nonane, 2-methyl-","Nelsen, Kessel, et al., 1979"
 25337-75-1,LBLHLM, C,7,PE,"1,6-Diazabicyclo[4.3.1]decane","Honegger, Yang, et al., 1985"
 10181-56-3,Vertical value, C,8.35,PE,"1,3-Cyclobutanedithione,2,2,4,4-tetramethyl-","Behan, Johnstone, et al., 1977"
 92224-19-6, , C,7.4,PE,"Thieno[3,4-d]thiepin, hexahydro-","Gleiter, Krennrich, et al., 1985"
 1124-11-4,Vertical value, C,8.6,PE,"Pyrazine, tetramethyl-","Bischof, Gleiter, et al., 1974"
 18903-54-3,, C,8.47,PE,"[1,2]Azaborino[1,2-a][1,2]azaborine, octahydro-","Dewar and Worley, 1969"
 99-98-9,LLK, C,6.46,PI,"1,4-Benzenediamine, N,N-dimethyl-","Pykhtina, Cherednichenko, et al., 1974"
 20397-57-3,Vertical value, C,8.25,PE,"1,3-Diazatricyclo[3.3.1.1","Gleiter, Kobayashi, et al., 1976"
 143800-07-1,Vertical value, C,7.86,PE,"Formamide, N-(2,5-dimethyl-1-pyrrolyl)-1-methyl-","Zverev, 1992"
 53233-92-4,Vertical value, C,7.77,PE,"Pyridazino[1,2-a][1,2,4,5]tetrazine,1,2,3,4,6,9-hexahydro-2,3-dimethyl-","Rademacher, Breier, et al., 1979"
 26458-78-6,Vertical value; , C,8.71 ¡À 0.015,PE,1-Azabicyclo[2.2.2]octane-4-carbonitrile,"Bieri and Heilbronner, 1974"
 37882-92-1,Vertical value, C,7.55,PE,"1H,5H,7H,11H-Dipyrazolo[1,2-a:1',2'-d][1,2,4,5]tetrazine, tetrahydro-","Rademacher, Breier, et al., 1979"
 51-46-7,Vertical value, C,7.389,PE,"1,3,6,8-Tetraazatricyclo(4.4.1.1(3,8))dodecane","Nelsen and Buschek, 1974"
 72593-07-8,Vertical value, C,8.83,PE,"Cyclobutanone, cyclobutylidenehydrazone","Kirste, Poppek, et al., 1984"
 25863-08-5,, C,7.68 ¡À 0.05,PE,"7,8-Diazatricyclo[4.2.2.0","Boyd, Bunzli, et al., 1976"
 71647-32-0,Vertical value, C,8.34,PE,"2,3-Diazabicyclo[2.2.2]oct-2-ene, 1-vinyl-","Engel, Gerth, et al., 1988"
 1689-79-8,, C,8.54 ¡À 0.05,EI,"Thiophene, 3-(1,1-dimethylethyl)-","Linda, Marino, et al., 1971"
 1689-78-7,LBLHLM, C,8.3,PE,"Thiophene, 2-(1,1-dimethylethyl)-","Veszpremi, Harada, et al., 1983"
 13350-64-6,Vertical value, C,8.2,PE,9-Thiabicyclo[4.2.1]non-7-ene,"Muller, Schweig, et al., 1974"
 14503-51-6,, C,7.93,CTS,Tetramethylthiophene,"Aloisi, Santini, et al., 1975"
 50436-33-4,Vertical value, C,8.35,PE,9-Thiabicyclo[3.3.1]-non-1-ene,"Batich, Heilbronner, et al., 1976"
 111-66-0,LLK, C,9.427 ¡À 0.006,PI,1-Octene,"Rang, Martinson, et al., 1974"
 1678-91-7,LBLHLM, C,9.54,EQ,"Cyclohexane, ethyl-","Sieck and Mautner(Meot-Ner), 1982"
 6876-23-9,LBLHLM, C,9.41,EQ,"Cyclohexane, 1,2-dimethyl-, trans-","Sieck and Mautner(Meot-Ner), 1982"
 590-66-9,LL, C,9.50 ¡À 0.05,EI,"Cyclohexane, 1,1-dimethyl-","Holmes and Lossing, 1991"
 2207-04-7,LBLHLM, C,9.56,EQ,"Cyclohexane, 1,4-dimethyl-, trans-","Sieck and Mautner(Meot-Ner), 1982"
 2040-96-2,LL, C,9.34 ¡À 0.05,EI,"Cyclopentane, propyl-","Holmes and Lossing, 1991"
 13271-67-5,LBLHLM, C,8.1,PE,Diethyl 2-furylsilane,"Zykov, Erchak, et al., 1983"
 1516-37-6,, C,7.8,EI,"Thiourea, N-(2-methoxyphenyl)-","Baldwin, Loudon, et al., 1976"
 58-08-2,LLK, C,7.95,PE,Caffeine,"Dougherty, Younathan, et al., 1978"
 34801-09-7,, C,7.39 ¡À 0.02,EI,2-Aminoacetanilide,"Benezra and Bursey, 1972"
 122-80-5,, C,7.12 ¡À 0.02,EI,"Acetamide, N-(4-aminophenyl)-","Benezra and Bursey, 1972"
 100-23-2,LLK, C,7.6 ¡À 0.1,PE,"Benzenamine, N,N-dimethyl-4-nitro-","Egdell, Green, et al., 1975"
 34761-82-5,Vertical value; , C,8.23,PE,"Benzenamine, 3,5-dimethyl-4-nitro-","Khalil, Meeks, et al., 1973"
 64186-72-7,Vertical value, C,7.68,PE,"2,5-Diazabicyclo[4.2.0]oct-1(6)-ene-7,8-dione,2,5-dimethyl-","Gleiter, Schang, et al., 1978"
 138-89-6, , C,7.2,PE,"Benzenamine, N,N-dimethyl-4-nitroso-","Egdell, Green, et al., 1975"
 16947-63-0,Vertical value, C,8.33,PE,"Benzenamine, 2,6-dimethyl-4-nitro-","Khalil, Meeks, et al., 1973"
 54818-73-4,, C,8.18 ¡À 0.05,EI,"Acetamide,N-methyl-N-3-pyridinyl-,N'-oxide","Undheim, El-Gendy, et al., 1974"
 54818-74-5,, C,7.52 ¡À 0.05,EI,"Acetamide,N-methyl-N-4-pyridinyl-,N'-oxide","Undheim, El-Gendy, et al., 1974"
 54818-72-3,, C,7.77 ¡À 0.05,EI,"Acetamide,N-methyl-N-2-pyridinyl-,N'-oxide","Undheim, El-Gendy, et al., 1974"
 1007-36-9,, C,8.50 ¡À 0.05,EI,"Urea, N-methyl-N'-phenyl-","Baldwin, Loudon, et al., 1976"
 3476-89-9,Vertical value, C,7.16,PE,Tetrahydroquinoxaline,"Nelsen, Grezzo, et al., 1981"
 50878-38-1,, C,8.47,PE,"Hydrazinecarbodithioic acid, 2-phenyl-, methyl ester","Cauletti, Tarli, et al., 1980"
 614-78-8,, C,8.2,EI,o-tolylthiourea,"Baldwin, Loudon, et al., 1976"
 2724-69-8,, C,8,EI,"Thiourea, N-methyl-N'-phenyl-","Baldwin, Loudon, et al., 1976"
 2207-01-4,LLK, C,¡Ü9.78 ¡À 0.05,EI,"Cyclohexane, 1,2-dimethyl-, cis-","Herzschuh and Sicker, 1981"
 638-04-0,, C,¡Ü9.98 ¡À 0.05,EI,"Cyclohexane, 1,3-dimethyl-, cis-","Herzschuh and Sicker, 1981"
 142-30-3,Vertical value, C,9.7,PE,"3-Hexyne-2,5-diol, 2,5-dimethyl-","Andreocci, Bitchev, et al., 1979"
 62-46-4,Vertical value, C,8.02,PE,Thioctic acid,"Bock, Stein, et al., 1980"
 502-49-8,Vertical value; , C,9.28,PE,Cyclooctanone,"Spanka, Boese, et al., 1987"
 177-10-6, , C,8.8,PE,"1,4-Dioxaspiro[4.5]decane","Lambert, Xue, et al., 1986"
 5455-94-7,Vertical value, C,9.29 ¡À 0.03,PE,"2,2,5,5-Tetramethyltetrahydro-3-ketofuran","Hohne, Marschner, et al., 1974"
 52965-57-8,Vertical value, C,9.06,PE,"7,8-Dioxabicyclo[4.2.2]decane","Gleiter, Schang, et al., 1980"
 69492-24-6,Vertical value; , C,9.2,PE,"8,9-Dioxabicyclo[5.2.1]decane","Gleiter, Dobler, et al., 1984"
 52438-71-8,LBLHLM, C,¡Ü8.6,PE,"2H-Pyran, 2-ethoxy-3,4-dihydro-6-methyl-","Morizur, Mercier, et al., 1982"
 16831-48-4,Vertical value, C,9.31,PE,"Cyclohexene, 4,4-dimethoxy-","Lambert, Xue, et al., 1986"
 65651-41-4,Vertical value, C,9.14,PE,"9,10-Dioxabicyclo[3.3.2]decane","Gleiter, Schang, et al., 1980"
 55370-32-6,, C,8.14,PE,"1,3-Butadiene, 2,3-diethoxy-","Scharf, Plum, et al., 1979"
 20534-58-1,Vertical value, C,9.65 ¡À 0.05,PE,Bicyclo[2.2.2]octan-1-ol,"Brown and Marcinko, 1978"
 27345-70-6,LBLHLM, C,9,PE,trans-7-Oxabicyclo[4.3.0]nonane,"Turecek and Hanus, 1983"
 39899-08-6,LLK, C,9.22,PE,"3-Hepten-2-one, 3-methyl-","Masclet and Mouvier, 1978"
 10198-29-5,LBLHLM, C,9,PE,"Benzofuran, octahydro-, cis-","Turecek and Hanus, 1983"
 97551-98-9, , C,8.7,PE,"Cyclohexanol, 1-methoxy-3-methylene-, (+-)-","Lambert, Xue, et al., 1986"
 4255-62-3,, C,9.12,PE,"Cyclohexanone, 4,4-dimethyl-","Loudet, Grimaud, et al., 1976"
 10395-55-8,Vertical value, C,9.17 ¡À 0.03,PE,"Bicyclo[2.2.1]heptane,2-methoxy-endo-","Neijzen, Schmitz, et al., 1975"
 36197-12-3,Vertical value, C,9.27 ¡À 0.03,PE,"Bicyclo[2.2.1]heptane,7-methoxy-","Neijzen, Schmitz, et al., 1975"
 284-20-8,Vertical value, C,9.12,PE,9-Oxabicyclo[4.2.1]nonane,"Schmidt, Schweig, et al., 1976"
 281-05-0,Vertical value, C,9.05,PE,9-Oxabicyclo[3.3.1]nonane,"Batich, Heilbronner, et al., 1976"
 7642-04-8,LLK, C,8.913 ¡À 0.009,PI,"2-Octene, (Z)-","Rang, Martinson, et al., 1974"
 2207-03-6,LL, C,9.52 ¡À 0.05,EI,"Cyclohexane, 1,3-dimethyl-, trans-","Holmes and Lossing, 1991"
 292-64-8,LL, C,9.82 ¡À 0.05,EI,Cyclooctane,"Holmes and Lossing, 1991"
 624-29-3,, C,¡Ü9.93 ¡À 0.05,EI,"Cyclohexane, 1,4-dimethyl-, cis-","Herzschuh and Sicker, 1981"
 14850-23-8,LLK, C,8.836 ¡À 0.006,PI,"4-Octene, (E)-","Rang, Martinson, et al., 1974"
 107-39-1,, C,8.909 ¡À 0.005,PE,"1-Pentene, 2,4,4-trimethyl-","Masclet, Grosjean, et al., 1973"
 13389-42-9,LLK, C,8.913 ¡À 0.006,PI,"2-Octene, (E)-","Rang, Martinson, et al., 1974"
 1112-56-7,LLK, C,8.4,PE,"Stannane, tetraethenyl-","Novak, Cvitas, et al., 1981"
 36309-89-4,Vertical value, C,8.51,PE,"Iron, dicarbonylbis(dimethylcarbamodithioato-s,s')-","Cauletti, Duffy, et al., 1977"
 15020-15-2,LLK, C,8,PE,Tetraacetato dichromium,"Coleman, Green, et al., 1979"
 49570-30-1,LL, C,7.73,PE,"1,4-Dimethyl-2,3-diaza-bicyclo[2.2.2]oct-2-ene","Engel, Gerth, et al., 1988"
 25926-97-0,Vertical value, C,9.13 ¡À 0.03,PE,"7,8-Diazabicyclo[4.2.2]dec-7-ene 7-oxide","Bunzli, Olsen, et al., 1977"
 63262-98-6,Vertical value, C,7.78,PE,"3-Butene-2-one, 4-[methyl(1-methylethylidene)hydrazino]-","Dreckschmidt, Kessel, et al., 1977"
 14287-91-3,Vertical value, C,7.51,PE,"2,3-Diazabicyclo[2.2.2]oct-5-ene,2,3-dimethyl-","Rademacher and Koopman, 1975"