CAS,Comment,Formula,IE,Method,Name,Refer
 2054-35-5,, C,8.02,EI,"2H-1-Benzothiopyran, 3,4-dihydro-","Loudon, Maccoll, et al., 1970"
 74626-63-4, , C,8.75,PE,"Phosphine, cyano-ethyl-phenyl-","Zverev, Villem, et al., 1981"
 85944-70-3,Vertical value, C,7.75,PE,"Iron, ¦Ç","Guimon, Pfister-Guillouzo, et al., 1985"
 41755-21-9, , C,6.65,PE,"Iron, (1,3-dimethylimidazolidin-2-ylidene)-tetracarbonyl-","Bohm, Daub, et al., 1980"
 69372-77-6,Vertical value, C,7.96,PE,"Rhodium, bis(¦Ç2-ethene)(1,1,1-trifluoro-2,4-pentanedionato-O,O')-","Van Dam, Terpstra, et al., 1980"
 74684-30-3,Vertical value, C,7.7,PE,"Iridium, (1,1,1-trifluoro-2,4-pentanedionato-o,o'-)-bis¦Ç","Van Dam, Terpstra, et al., 1980"
 6479-02-3,Vertical value; , C,8.7,PE,"2,3,6-Trimethylpyrazino[2,3-b]pyrazine","Gleiter, Spanget-Larsen, et al., 1984"
 18583-62-5, , C,8.23,PE,Sodium hydrotris(1-pyrazolyl)borate,"Bruno, Ciliberto, et al., 1981"
 34269-45-9, , C,8.15,PE,Thallium hydrotris(1-pyrazolyl)borate,"Bruno, Ciliberto, et al., 1981"
 24913-14-2, , C,7.2,PE,"1,4,7-Triazacyc[3.3.3]azine","Leupin, Magde, et al., 1986"
 115406-91-2,Vertical value, C,7.18,PE,"Rhodium, ¦Ç","Lichtenberger and Renshaw, 1991"
 37159-99-2, , C,7.2,PE,"1,3,6,9b-Tetraazaphenalene","Rossman, Leonard, et al., 1985"
 63325-76-8, , C,7.3,PE,"1,3,4-Triazacycl[3.3.3]azine","Rossman, Leonard, et al., 1985"
 825-24-1, , C,9.3,PE,"Bicyclo[2.2.1]hexa-2,5-diene, 2,3-dicarbonitrile-","Kobayashi, Yoshida, et al., 1987"
 42474-60-2,Vertical value, C,9.15,PE,"6-Benzothiazolecarbonitrile,2-methyl-","Salmona, Faure, et al., 1975"
 3445-76-9,LLK, C,7.8,PE,"3H-1,2-Dithiole-3-thione, 5-phenyl-","Gonbeau, Guimon, et al., 1975"
 122-00-9,LLK, C,9.17 ¡À 0.02,EI,"Ethanone, 1-(4-methylphenyl)-","Rabbih, Helal, et al., 1981"
 104-54-1,, C,8.1 ¡À 0.2,EI,"2-Propen-1-ol, 3-phenyl-","Denhez and Audier, 1984"
 93-55-0,LLK, C,9.16,PI,"1-Propanone, 1-phenyl-","McLoughlin and Traeger, 1979"
 103-79-7,LLK, C,8.7,PE,Benzyl methyl ketone,"Centineo, Fragala, et al., 1978"
 491-39-4,Vertical value, C,8.68,PE,4H-1-Benzothiopyran-4-one,"Loutfy, Still, et al., 1979"
 17965-47-8,, C,7.51,CTS,"7H-Cyclopenta[1,2-b:3,4-b']dithiophene","Kraak and Wynberg, 1968"
 10095-83-7,LBLHLM, C,8.5,PE,"[2,3-d]Thieno cycloheptatrienone","Gleiter, Bischof, et al., 1984"
 22810-27-1,Vertical value, C,9.93,PE,"4H-1-Benzothiopyran-4-one-1,1-dioxide","Loutfy, Still, et al., 1979"
 12128-53-9,, C,6.6,PE,(¦Ç,"Byers and Hall, 1987"
 389-58-2,, C,7.42,CTS,"4H-Cyclopenta[2,1-b:3,4-b']dithiophene","Kraak and Wynberg, 1968"
 585-74-0,LLK, C,9.24 ¡À 0.02,EI,"Ethanone, 1-(3-methylphenyl)-","Rabbih, Helal, et al., 1981"
 493-05-0,, C,8.9,EI,Isochroman,"Loudon, Maccoll, et al., 1970"
 493-08-3,LLK, C,7.93,PE,"2H-1-Benzopyran, 3,4-dihydro-","Behan, Dean, et al., 1976"
 577-16-2,LLK, C,9.27 ¡À 0.01,EI,"Ethanone, 1-(2-methylphenyl)-","Rabbih, Helal, et al., 1981"
 4254-29-9,LBLHLM, C,8.5,EI,2-Indanol,"Audier, Milliet, et al., 1983"
 1335-10-0,LBLHLM, C,8.7 ¡À 0.2,EI,3-Phenylpropanal,"Denhez and Audier, 1984"
 4393-06-0,LBLHLM, C,8.6 ¡À 0.2,EI,vinylphenylcarbinol,"Denhez and Audier, 1984"
 38680-06-7,Vertical value, C,8.64 ¡À 0.03,PE,"Bicyclo[2.2.1]heptan-7-one,2,3-bis(methylene)-","Pfeffer, Klessinger, et al., 1975"
 69380-02-5,LBLHLM, C,8.5,EI,2-(2-Methylphenyl)ethanal,"Audier, Milliet, et al., 1983"
 62289-63-8, , C,8.6,PE,"Bicycllo[2.2.1]heptan-2-one, 5,6-dimethylene-","Carrupt, Gabioud, et al., 1987"
 42152-37-4,Vertical value, C,8.55,PE,"2-Cyclopropen-1-one,2,3-dicyclopropyl-","Dehmlow, Dehmlow, et al., 1977"
 91-64-5,Vertical value; , C,8.72,PE,Coumarin,"Redchenko, Safronov, et al., 1992"
 37682-92-1,Vertical value, C,9.24,PE,4H-1-Benzothiopyran-4-one-1-oxide,"Loutfy, Still, et al., 1979"
 74395-26-9,Vertical value, C,8.6,PE,"Imidazolidine,2-(pentafluorophenylimino)-)","de Jong and Van Dam, 1980"
 22529-97-1,Vertical value, C,8.9,PE,"Pentafluoroaniline, TMS derivative","Furin, Sultanov, et al., 1987"
 606-23-5,Vertical value; , C,9.43 ¡À 0.05,PE,"1H-Indene-1,3(2H)-dione","Galasso, Colonna, et al., 1977"
 16214-27-0,LLK, C,8.8,PE,"1H-Indene-1,2(3H)dione","Galasso, Colonna, et al., 1977"
 18895-06-2,LBLHLM, C,8.65,PE,"[2,3-d]-Furocycloheptatrienone","Gleiter, Bischof, et al., 1984"
 300-57-2,LLK, C,8.7,PE,"Benzene, 2-propenyl-","Fu and Dunbar, 1978"
 496-11-7,LLK, C,8.6 ¡À 0.1,EI,Indane,"Koppel, Schwarz, et al., 1974"
 766-30-3,LLK, C,8.2,PE,"Spiro[4.4]nona-1,3,6-triene","Batich, Heilbronner, et al., 1974"
 98-83-9,LLK, C,8.3 ¡À 0.1,EI,¦Á-Methylstyrene,"Koppel, Schwarz, et al., 1974"
 24167-56-4,Vertical value; , C,9.13,PE,"N,N-Dimethyl p-fluorobenzamide","Gal, Geribaldi, et al., 1985"
 17881-88-8,, C,9.34,EI,"Silane, methoxydimethylphenyl-","Gey and Dube, 1976"
 4683-45-8,Vertical value; , C,9.35,PE,"2-Cyclohexen-1-one,3-methoxy,5,5-dimethyl-","Pfister-Guillouzo, Geribaldi, et al., 1982"
 20633-06-1,Vertical value, C,8.76 ¡À 0.05,PE,"1,2-Cyclopentanedione, 3,3,5,5-tetramethyl-","Verheijdt and Cerfontain, 1982"
 104598-81-4, , C,8.7,PE,"1,4-Dioxaspiro[4.5]decane, 7-methylene-","Lambert, Xue, et al., 1986"
 1125-11-7,, C,9.10 ¡À 0.05,PE,"1,3-Cyclohexanedione, 2,5,5-trimethyl-","Houk, Davis, et al., 1973"
 3401-01-2,, C,9.09 ¡À 0.05,PE,"1,3-Cyclohexanedione,2-(1-methylethyl)-","Houk, Davis, et al., 1973"
 74896-19-8,Vertical value, C,9.18,PE,"1,3-Cyclopentanedione,4,4,5,5-tetramethyl-","Gleiter, Hofmann, et al., 1980"
 100-80-1,LLK, C,8.15 ¡À 0.02,PE,"Benzene, 1-ethenyl-3-methyl-","Maier and Turner, 1973"
 622-97-9,LLK, C,8.1 ¡À 0.1,EI,"Benzene, 1-ethenyl-4-methyl-","Koppel, Schwarz, et al., 1974"
 60149-92-0,Vertical value, C,7.45,PE,"Chromium, pentacarbonyl-(diethylsulfide)-)","Weiner and Lattman, 1978"
 76790-81-3, , C,8.6,PE,"1,2-Butadiene, 1,1-diethoxy-4,4,4-trifluoro-3-(trifluoromethyl)-","Gleiter, Saalfrank, et al., 1983"
 57556-07-7,, C,8.09 ¡À 0.05,EI,"3(2H)-Thiophenone,2-(1,1-dimethylethyl)-5-methyl-","Thorstad, Undheim, et al., 1975"
 57556-15-7,, C,9.07 ¡À 0.05,EI,"2(5H)-Thiophenone,3-(1,1-dimethylethyl)-5-methyl-","Thorstad, Undheim, et al., 1975"
 57556-16-8,, C,7.67 ¡À 0.05,EI,"Thiophene,3-(1,1-dimethylethyl)-2-methoxy-","Thorstad, Undheim, et al., 1975"
 57556-18-0,, C,8.38 ¡À 0.05,EI,"2(3H)-Thiophenone,3-(1,1-dimethylethyl)-3-methyl-","Thorstad, Undheim, et al., 1975"
 78-59-1,Vertical value; , C,9.07,PE,Isophorone,"Pfister-Guillouzo, Geribaldi, et al., 1982"
 57556-05-5,, C,8.10 ¡À 0.05,EI,"3(2H)-Thiophenone,5-(1,1-dimethylethyl)-2-methyl-","Thorstad, Undheim, et al., 1975"
 13211-15-9,LLK, C,8.6,PE,"Bicyclo[2.2.1]heptan-2-one, 3,3-dimethyl-","Frost, Westwood, et al., 1980"
 5689-04-3,, C,9.14 ¡À 0.08,EI,"2H-Inden-2-one, octahydro-, cis-","Jaudon and Tabet, 1980"
 2568-17-4,Vertical value, C,8.94,PE,Bicyclo[3.3.1]nonan-2-one,"Doerner, Gleiter, et al., 1992"
 14252-11-0,Vertical value, C,8.9,PE,Bicyclo[4.2.1]nonan-9-one,"Schafer, Schmidt, et al., 1974"
 25489-02-5,Vertical value, C,9.17 ¡À 0.05,PE,"Bicyclo[2.2.2]oct-2-ene,1-methoxy-","Brown and Marcinko, 1978"
 64725-58-2,Vertical value, C,9.11 ¡À 0.02,PE,"Bicyclo[4.2.1]non-3-en-9-ol, anti-","Brown and Marcinko, 1977"
 29927-85-3,, C,9.08 ¡À 0.08,EI,"1H-Inden-1-one, octahydro-","Jaudon and Tabet, 1980"
 38476-45-8,LLK, C,8.75,PE,"Bicyclo[2.2.1]heptan-2-one,6,6-dimethyl-","Frost, Westwood, et al., 1980"
 56206-38-3,Vertical value, C,8.77 ¡À 0.03,PE,"Bicyclo[2.2.2]oct-2-ene,5-methoxy-","Neijzen, Schmitz, et al., 1975"
 37773-42-5,LLK, C,7.3,PE,2-Ethylselenotoluene,"Baker, Armen, et al., 1981"
 64725-59-3,Vertical value, C,9.14 ¡À 0.02,PE,"Bicyclo[4.2.1]non-3-en-9-ol, syn-","Brown and Marcinko, 1977"
 78805-17-1, , C,7.75,PE,"Benzene, 1,3-dimethyl-2-methylseleno-","Baker, Armen, et al., 1981"
 22233-89-2,Vertical value; , C,8.3,PE,Isopropyl selenobenzene,"Baker, Armen, et al., 1981"
 37773-43-6,LLK, C,7.1,PE,4-Ethylselenotoluene,"Baker, Armen, et al., 1981"
 873-66-5,LLK, C,8.1,PE,trans-¦Â-Methylstyrene,"Kobayashi, Arai, et al., 1981"
 873-49-4,LLK, C,8.35,PE,"Benzene, cyclopropyl-","Fu and Dunbar, 1978"
 4341-34-8,, C,8.84,CTS,"2,2'-Methylenedithiophene","Kraak and Wynberg, 1968"
 611-15-4,LLK, C,8.20 ¡À 0.02,PE,"Benzene, 1-ethenyl-2-methyl-","Maier and Turner, 1973"
 31270-74-3,, C,8.97,CTS,"2,3'-Dithienylmethane","Kraak and Wynberg, 1968"
 15038-40-1,, C,7.45 ¡À 0.05,EI,"Chromium,pentacarbonyl(tetrahydrothiophene)-","Distefano, Foffani, et al., 1971"
 36570-19-1, , C,6.7,PE,"Iron, (1,3-dimethylimidazol-2-ylidene)-tetracarbonyl-","Bohm, Daub, et al., 1980"
 12108-25-7,Vertical value, C,8.01,PE,"Ruthenium,tricarbonyl[(1,2,3,4-¦Ç","Green, Powell, et al., 1976"
 614-60-8,LBLHLM, C,8.5,EI,"2-Propenoic acid, 3-(2-hydroxyphenyl)-, (E)-","Schaldach, 1984"
 2345-34-8,, C,9.1 ¡À 0.2,EI,"Benzoic acid, 4-(acetyloxy)-","Gamble, Gilbert, et al., 1971"
 3528-17-4,Vertical value, C,8.53,PE,"4H-1-Benzothiopyran-4-one, 2,3-dihydro-","Loutfy, Still, et al., 1979"
 33945-86-7,Vertical value; , C,8.75,PE,2-Methylbenzo[b]thiophene 1-oxide,"Bened, Durand, et al., 1982"
 2415-80-7,LLK, C,8.7,PE,"Benzene, 2,2-dichlorocyclopropyl-","Shudo, Kobayashi, et al., 1977"
 51500-43-7,LBLHLM, C,8.2,PE,3-Methylbenzo[b]thiophene 1-oxide,"Bened, Durand, et al., 1982"
 3019-20-3,LLK, C,7.9,PE,"Sulfide, isopropyl phenyl","Dewar, Ernstbrunner, et al., 1974"
 874-79-3,LLK, C,7.81 ¡À 0.03,PI,"Benzene, (propylthio)-","Potapov, Kardash, et al., 1972"
 622-63-9,LLK, C,8,PE,"Benzene, 1-(ethylthio)-4-methyl-","Dewar, Ernstbrunner, et al., 1974"
 34786-24-8,Vertical value; , C,7.92,PE,"Benzene, 1-(ethylthio)-3-methyl-","Dewar, Ernstbrunner, et al., 1974"
 75471-07-7,Vertical value, C,7.03,PE,"Methanamine, N,N-dimethyl-1-(phenylphosphinidene)-","Zverev and Ionkin, 1991"
 1626-00-2, , C,8.98 ¡À 0.05,PE,Trimethylphenylgermanium,"Distefano, Pignataro, et al., 1974"
 34472-62-3,Vertical value, C,7.7 ¡À 0.2,PE,"Diazene, phenyl(trimethylgermyl)-","Bock, Wittel, et al., 1976"
 1783-25-1,, C,7.3,EI,"Methanimidamide, N,N-dimethyl-N'-phenyl-","Kuschel and Grutzmacher, 1974"
 4848-62-8,, C,8.1 ¡À 0.1,EI,"Germane,trimethyl(phenylthio)-","Distefano, Ricci, et al., 1974"
 2741-06-2,, C,7.95 ¡À 0.05,EI,"Thiourea, N-ethyl-N'-phenyl-","Baldwin, Loudon, et al., 1976"
 23314-05-8,Vertical value; , C,8.78,PE,"1H-Pyrrole-3-carboxylic acid, 2,4-dimethyl-5-nitro-, ethyl ester","Cauletti, Giancaspro, et al., 1981"
 5463-44-5,Vertical value; , C,8.76,PE,"1H-Pyrrole-2-carboxylic acid, 3,5-dimethyl-4-nitro-, ethyl ester","Cauletti, Giancaspro, et al., 1981"
 32417-74-6,Vertical value, C,8.3,PE,"Benzenamine,N,N,2-trimethyl-4-nitro-","Khalil, Meeks, et al., 1973"
 621-04-5,, C,8.25 ¡À 0.05,EI,"Urea, N-ethyl-N'-phenyl-","Baldwin, Loudon, et al., 1976"
 3204-31-7,Vertical value, C,7.06,PE,"Benzimidazoline, 1,3-dimethyl-","Nelsen, Grezzo, et al., 1981"
 7528-78-1,, C,10.4,PE,"Propanenitrile, 3,3',3''-nitrilotris-","Molder, Pikver, et al., 1983"
 4551-15-9,LLK, C,8.3 ¡À 0.1,EI,"Thiophenol, TMS derivative","Distefano, Ricci, et al., 1974"
 1007-27-8, , C,7.9 ¡À 0.1,EI,"Stannane,trimethyl(phenylthio)-","Distefano, Ricci, et al., 1974"
 67792-55-6,Vertical value; , C,8.9,PE,Tricyclo[4.2.1.0,"Martin, Schiwek, et al., 1978"
 140-10-3,, C,9.00 ¡À 0.05,EI,trans-Cinnamic acid,"Schaldach, 1984"
 102-94-3,, C,8.9,EI,(Z)-3-Phenyl-2-propenoic acid,"Schaldach, 1984"
 25783-45-3,, C,8.24 ¡À 0.15,EI,"Benzene, 1-ethoxy-3-methoxy-","McLafferty and Schiff, 1969"
 12152-72-6,RDSH, C,8.0 ¡À 0.2,EI,"Iron,tricarbonyl[(1,2,3,4-¦Ç","Winters and Kiser, 1965"
 494-99-5,Vertical value; , C,7.95,PE,"3,4-Dimethoxytoluene","Domelsmith, Munchausen, et al., 1977"
 56453-93-1,Vertical value, C,7.94,PE,"1H-Pyrrole-3-carboxylic acid, 5-chloro- 2,4-dimethyl, ethyl ester","Cauletti, Giancaspro, et al., 1981"
 58921-31-6,Vertical value; , C,8.03,PE,"1H-Pyrrole-2-carboxylic acid, 4-chloro-3,5-dimethyl, ethyl ester","Cauletti, Giancaspro, et al., 1981"
 6406-91-3,Vertical value; , C,9.2,PE,"Benzo[b]thiophene 1,1-dioxide, 3-methyl-","Bened, Durand, et al., 1982"
 6224-55-1,Vertical value; , C,9.1,PE,"2-Methylthianaphthene-1,1 dioxide","Bened, Durand, et al., 1982"
 83947-07-3,LBLHLM, C,9.4,PE,"4,7-Methanobenzo[c]thiophene, 1,3,3a,4,7,7a-hexahydro-2,2-dioxide, (3a¦Á,4¦Á,7¦Á,7a¦Á)-","Aitken, Gosney, et al., 1984"
 20828-66-4,, C,8.4 ¡À 0.3,EI,"2-Thiophenebutanoic acid, methyl ester","Howe and Williams, 1968"
 92688-80-7,LBLHLM, C,9.1,PE,"4,7-Methanobenzo[b]thiophene, 2,3,3a,4,7,7a-hexahydro-1,1-dioxide, (3a¦Á,4¦Á,7¦Á,7a¦Á)-","Aitken, Gosney, et al., 1984"
 13596-75-3,LLK, C,9.21 ¡À 0.03,PI,"Benzene, (propylsulfonyl)-","Evlasheva, Puchkova, et al., 1975"
 5076-72-2,RDSH, C,8.03 ¡À 0.15,EI,"Benzene, 1-ethoxy-4-methoxy-","McLafferty and Schiff, 1969"
 16473-11-3, , C,9,PE,"Bicyclo(3.3.1)nonane-2,6-dione","Albert, Elsasser, et al., 1991"
 41532-81-4,, C,8.41 ¡À 0.05,EI,"Benzene, (2-methoxyethoxy)-","Schwarz, Petersen, et al., 1977"
 38476-46-9,LLK, C,9,PE,"Bicyclo[2.2.1]heptane-2,5-dione, 3,3-dimethyl-","Frost, Westwood, et al., 1980"
 5408-07-1,LLK, C,7.75,PE,"1H-Pyrrole-2-carboxylic acid, 4-bromo-3,5-dimethyl,ethyl ester","Cauletti, Giancaspro, et al., 1981"
 74896-15-4,Vertical value, C,9.15,PE,"Bicyclo[3.2.2]nonane-2,4-dione","Gleiter, Hofmann, et al., 1980"
 67843-63-4,Vertical value; , C,8.65,PE,Tricyclo[4.2.1.0.0,"Martin, Schiwek, et al., 1978"
 94499-50-0,Vertical value; , C,9.38,PE,Tricyclo[6.1.0.0,"Gleiter, Jahne, et al., 1985"
 127750-96-3, , C,8.8,PE,"7-Oxabicyclo[2.2.1]heptanone, 3,5,6-trimethylidene-","Roser, Carrupt, et al., 1990"
 133960-97-1,Vertical value, C,9.45,PE,"Bicyclo[3.3.1]nona-3,7-diene-2,6-dione","Doerner, Gleiter, et al., 1992"
 2309-49-1,, C,7.91,CTS,"1,3,7,9-Tetramethyluric acid","Slifkin and Allison, 1967"
 60526-40-1,LLK, C,8.1,PE,"Spiro[bicyclo[2.2.1]hept-5-ene-7,1'-cyclopropane]-2,3-dione","Dougherty, Blankespoor, et al., 1979"
 83-33-0,, C,9.31,EI,"1H-Inden-1-one, 2,3-dihydro-","Hansen and Undheim, 1975"
 4187-87-5,Vertical value, C,10.69,PE,"Benzenemethanol, ¦Á-ethynyl-","Andreocci, Bitchev, et al., 1979"
 34733-74-9,Vertical value, C,8.28,PE,"Bicyclo[4.2.1]nona-2,4,7-trien-9-one","Schafer, Schmidt, et al., 1974"
 57297-57-1,Vertical value, C,8.57 ¡À 0.03,PE,"Bicyclo[2.2.1]hept-2-en-7-one, 5,6-bis(methylene)-","Pfeffer, Klessinger, et al., 1975"
 527-60-6,Vertical value, C,8,PE,"Phenol, 2,4,6-trimethyl-","Cetinkaya, Lappert, et al., 1983"
 6378-07-0,Vertical value; , C,8.56,PE,p-Tolyl ethyl sulfoxide,"Mohraz, Jian-qi, et al., 1981"
 634-36-6,, C,8.2 ¡À 0.15,CTS,"1,2,3-Trimethoxybenzene","Voigt and Reid, 1964"
 621-23-8,RDSH, C,7.96,CTS,"Benzene, 1,3,5-trimethoxy-","Verhoeven, Dirkx, et al., 1969"
 135-77-3,, C,7.49,CTS,"1,2,4-Trimethoxybenzene","Verhoeven, Dirkx, et al., 1969"
 1889-98-1,Vertical value, C,9,PE,"1,2,3 Cyclopentanetrione,4,4,5,5-tetramethyl-","Bischof, Gleiter, et al., 1975"
 539-30-0,Vertical value, C,8.42,PE,"Benzene, (ethoxymethyl)-","Friege and Klessinger, 1979"
 2741-16-4,Vertical value; , C,8.32,PE,"Benzene, 1-methylethoxy-","Dewar, Ernstbrunner, et al., 1974"
 1004-66-6,LLK, C,8.10 ¡À 0.02,PE,"Benzene, 2-methoxy-1,3-dimethyl-","Maier and Turner, 1973"
 6738-23-4,Vertical value, C,7.95,PE,"2,4-Dimethylanisole","Kobayashi and Nagakura, 1974"
 614-71-1,LLK, C,8,PE,"Benzene, 1-ethoxy-2-methyl-","Baker, Armen, et al., 1981"
 23691-62-5,Vertical value, C,8.67,PE,Tricyclo[3.2.1.1,"Kovac and Klasinc, 1978"
 622-60-6,Vertical value, C,8.13,PE,"Benzene, 1-ethoxy-4-methyl-","Dewar, Ernstbrunner, et al., 1974"
 17931-67-8,Vertical value, C,8.81,PE,"Tricyclo[3.2.1.13,6]nonan-7-one","Kovac and Klasinc, 1978"
 42948-91-4,Vertical value, C,9.1,PE,Bicyclo[4.2.1]non-7-en-9-one,"Schafer, Schmidt, et al., 1974"
 64725-60-6,Vertical value, C,8.43 ¡À 0.02,PE,"Bicyclo[4.2.1]nona-2,4-dien-9-ol, anti-","Brown and Marcinko, 1977"
 10036-12-1,Vertical value, C,9.01,PE,Bicyclo[3.3.1]non-3-en-2-one,"Doerner, Gleiter, et al., 1992"
 64725-61-7,Vertical value, C,8.62 ¡À 0.02,PE,"Bicyclo[4.2.1]nona-2,4-dien-9-ol, syn-","Brown and Marcinko, 1977"
 18469-37-9,Vertical value; , C,9.09,PE,"N,N-Dimethyl p-bromobenzamide","Gal, Geribaldi, et al., 1985"
 56993-57-8,Vertical value, C,8.13,PE,"3,4-Dimethylphosphole manganese tricarbonyl","Guimon, Pfister-Guillouzo, et al., 1979"
 637-50-3,, C,8.5 ¡À 0.1,EI,"Benzene, 1-propenyl-","Koppel, Schwarz, et al., 1974"
 766-90-5,LLK, C,8.15,PE,(Z)-1-Phenylpropene,"Kobayashi, Arai, et al., 1981"
 5770-97-8,Vertical value, C,7.87,PE,"1,3,4-Thiadiazole-2(3H)-thione,3-methyl-5-phenyl-","Guimon, Pfister-Guillouzo, et al., 1975"
 16089-70-6,Vertical value, C,8.35 ¡À 0.02,PE,"Benzonitrile,4-[(methylimino)methyl]-N(4)-oxide","Bastide, Maier, et al., 1976"
 14088-57-4,Vertical value, C,8.52 ¡À 0.05,PE,"1-Propanone,2-diazo-1-phenyl-","Modelli, Innorta, et al., 1980"
 16780-62-4,, C,7.8,PE,"3H-1,4-Benzodiazepin-2-one, 1,2-dihydro-","Andronati, Khvostenko, et al., 1989"
 17263-64-8,Vertical value, C,8.80 ¡À 0.05,PE,"Ethanone,2-diazo-1-(4-methylphenyl)-","Modelli, Innorta, et al., 1980"
 30855-80-2,Vertical value; , C,8.5,PE,N-(p-Cyanophenyl)aziridine,"Crimaldi, Lichter, et al., 1982"
 5628-77-3,Vertical value, C,8.48,PE,"Bicyclo[2.2.1]hept-2-ene,5,6-bis(methylene)-","Asmus and Klessinger, 1974"
 7092-05-9,LBLHLM, C,8.3,PE,Tricyclo[3.2.2.0,"Gleiter, Bohm, et al., 1983"
 14693-11-9,Vertical value, C,8.4,PE,Tricyclo[3.3.1.0,"Askani, Gleiter, et al., 1971"
 5240-87-9,Vertical value, C,8.36,PE,"Bicyclo[4.2.1]nona-2,4,7-triene","Bischof, Gleiter, et al., 1970"
 55980-70-6,LBLHLM, C,8.3,PE,"Dispiro[2.0.2.3]nona-1,5-diene","Spanget-Larsen, de Korswagen, et al., 1982"
 15564-45-1,Vertical value, C,9.03 ¡À 0.03,PE,Tricyclo[4.2.1.0,"Martin, Kagabu, et al., 1974"
 85880-10-0,Vertical value, C,8.85 ¡À 0.05,PE,Tricyclo[3.2.1.0,"Martin, Heller, et al., 1977"
 3721-64-0,Vertical value, C,8.43 ¡À 0.02,PE,"Dicyclopropa[cd,gh]pentalene,octahydro-1-methylene-","Martin, Heller, et al., 1974"
 452-61-9,LLK, C,8.47,PE,Pentacyclo[4.3.0.0,"Gassman and Yamaguchi, 1979"
 4932-71-2,Vertical value, C,8.7,PE,Tricyclo[4.2.1.0,"Haselbach and Eberbach, 1973"
 15564-44-0,Vertical value, C,8.65 ¡À 0.05,PE,Tricyclo[4.2.1.0,"Brogli, Eberbach, et al., 1973"
 12108-54-2,, C,6.6 ¡À 0.1,EI,Cyclopentadienyl(dimethylamine)manganese dicarbonyl,"Muller and Herberhold, 1968"
 103-65-1,LL, C,8.7134,TE,"Benzene, propyl-","Takahashi and Kimura, 1992"
 108-67-8,LLK, C,8.41 ¡À 0.01,EQ,Mesitylene,"Lias and Ausloos, 1978"
 98-82-8,LLK, C,8.72,EI,"Benzene, (1-methylethyl)-","McLoughlin, Morrison, et al., 1979"
 95-63-6,LBLHLM, C,8.27,PE,"Benzene, 1,2,4-trimethyl-","Howell, Goncalves, et al., 1984"
 526-73-8,LLK, C,8.42 ¡À 0.02,EQ,"Benzene, 1,2,3-trimethyl-","Lias and Ausloos, 1978"
 766-82-5,Vertical value; , C,8.63 ¡À 0.02,PE,3-Methylphenylacetylene,"Carlier and Mouvier, 1979"
 2327-99-3,Vertical value, C,8.29,PE,"Benzene, 1,2-propadienyl-","Runge, Kosbahn, et al., 1975"
 14867-83-5,Vertical value; , C,7.99,PE,"Spiro[4.4]nona-1,3,6,8-tetraene","Batich, Heilbronner, et al., 1974"
 766-47-2,RDSH, C,8.9,EI,2-Methylphenylacetylene,"Occolowitz and White, 1968"
 766-97-2,Vertical value; , C,8.48 ¡À 0.02,PE,"Benzene, 1-ethynyl-4-methyl-","Carlier and Mouvier, 1979"
 673-32-5,LLK, C,8.42 ¡À 0.08,PE,"Benzene, 1-propynyl-","Elbel, Lienert, et al., 1981"
 1743-34-6,, C,7.2 ¡À 0.1,EI,"3,5,7-Nonatrien-1-yne, (E,E,E)-","Koppel, Schwarz, et al., 1974"
 95-13-6,LLK, C,8.33 ¡À 0.01,EI,Indene,"Rakita, Hoffman, et al., 1973"
 13084-56-5,Vertical value, C,9.15 ¡À 0.05,PE,"1,2-Methanodicyclopropa[cd,gh]pentalene,octahydro-","Martin, Heller, et al., 1977"
 7092-57-1,LLK, C,7.9,PE,"Spiro[bicyclo[2.2.1]hepta-2,5-diene-7,1'-cyclopropane]","Brogli, Heilbronner, et al., 1972"
 58913-91-0,, C,8.76,PE,"1H-Cyclobuta[cd]pentalene,1a,3a,5a,5b-tetrahydro-","Domelsmith, Houk, et al., 1978"
 34259-71-7,, C,8.6 ¡À 0.2,EI,"Silane,1,1-dichloro[3-(dimethylsilyl)phenyl]methyl]-","Dube and Chvalovsky, 1974"
 24430-29-3,LLK, C,8.2,PE,"Spiro[4.4]nona-1,3,7-triene","Batich, Heilbronner, et al., 1974"
 16216-91-4,Vertical value, C,8.72,PE,"Bicyclo[3.2.2]nona-2,6,8-triene","Goldstein, Natowsky, et al., 1973"