CAS,Comment,Formula,IE,Method,Name,Refer
 75-86-5,, C,11.09,PE,Acetone cyanohydrin,"Koppel, Molder, et al., 1983"
 38353-06-9,, C,9.47 ¡À 0.05,EI,"2(1H)-Pyrimidinone, 5-bromo-","Gacek, Thorstad, et al., 1978"
 617-36-7,Vertical value; , C,9.85,PE,Ethyl oxamate,"Meeks and McGlynn, 1975"
 543-24-8,LBLHLM, C,9.4,PE,"Glycine, N-acetyl-","Cannington and Ham, 1983"
 627-36-1,LBLHLM, C,11.8 ¡À 0.25,EI,"Propane, 1-isocyano-","Chess, Lapp, et al., 1982"
 1072-70-4,Vertical value, C,9.99,PE,"2-Oxazolanone, 5-methyl-","Gerson, Worley, et al., 1978"
 67428-02-8,Vertical value; , C,10.02,PE,"Nitrous acid, 3-butenyl ester","Houle and Beauchamp, 1978"
 16112-59-7,Vertical value, C,9.95,PE,"2-Oxazolidinone,4-methyl-","Gerson, Worley, et al., 1978"
 5202-78-8,, C,8.95,EST,N-vinylacetamide,"Takhistov and Ponomarev, 1994"
 2679-13-2,Vertical value; , C,9.29,PE,"2H-Azetidin-2-one, 2-methyl-","Treschanke and Rademacher, 1985"
 2295-35-4,LLK, C,8.14,PE,2-Pyrrolidinethione,"Andreocci, Devillanova, et al., 1980"
 5724-81-2,Vertical value, C,9.71,PE,1-Pyrroline,"Bock and Dammel, 1987"
 109-96-6, , C,8,PE,"1H-Pyrrole, 2,5-dihydro-","Morishima, Yoshikawa, et al., 1975"
 5029-66-3,, C,9.1,PE,"Propionic acid, 3-iodo-, methyl ester","Burgers, Holmes, et al., 1983"
 1908-87-8,, C,8.04 ¡À 0.03,PE,3-methylthiazolidine-2-thione,"Guimon, Pfister-Guillouzo, et al., 1974"
 59163-66-5,Vertical value, C,8.68 ¡À 0.05,PE,"Tellurophene,2-chloro-","Fringuelli, Marino, et al., 1976"
 1449-67-8,LBLHLM, C,8.654,PE,"Selenophene, 2-chloro-","Reineck, Nohre, et al., 1983"
 37686-36-5,, C,8.421,PE,2-Iodoselenophene,"Reineck, Nohre, et al., 1983"
 17249-80-8,, C,8.92,PE,3-Chlorothiophene,"Veszpremi, Nyulaszi, et al., 1988"
 3187-94-8,, C,8.75,PE,"Furan, 2-chloro-","Baker and Turner, 1970"
 59163-68-7,Vertical value, C,8.34 ¡À 0.05,PE,"Tellurophene,2-iodo-","Fringuelli, Marino, et al., 1976"
 872-31-1,LLK, C,8.87,CTS,"Thiophene, 3-bromo-","Aloisi, Santini, et al., 1975"
 1003-09-4,LLK, C,8.8,CTS,"Thiophene, 2-bromo-","Aloisi and Pignataro, 1973"
 10486-61-0,Vertical value; , C,8.46,PE,3-Iodothiophene,"Bozic, Humski, et al., 1977"
 3437-95-4,RDSH, C,8.55 ¡À 0.05,PE,"Thiophene, 2-iodo-","Baker, Betteridge, et al., 1970"
 375-01-9,LBLHLM, C,11.2,PE,"2,2,3,3,4,4,4-Heptafluoro-butanol","Koppel, Molder, et al., 1983"
 96-43-5,LL, C,8.78,PE,"Thiophene, 2-chloro-","Veszpremi, Nyulaszi, et al., 1988"
 54326-16-8,, C,9.78 ¡À 0.05,EI,5-chloro-1H-pyrimidin-2-one,"Gacek, Thorstad, et al., 1978"
 374-27-6,, C,10.9,EST,"3,3,4,4,4-pentafluorobut-1-ene","Takhistov and Ponomarev, 1994"
 40589-39-7,, C,8.94 ¡À 0.02,PE,"1-Butene-3-yne, 4-iodo-","Brogli, Heilbronner, et al., 1975"
 31575-35-6,, C,10.5,PE,"Pyrimidine,2-fluoro-","Van den Ham, Van der Meer, et al., 1974"
 59163-67-6,Vertical value, C,8.59 ¡À 0.05,PE,"Tellurophene,2-bromo-","Fringuelli, Marino, et al., 1976"
 1449-68-9,, C,8.564,PE,2-Bromoselenophene,"Reineck, Nohre, et al., 1983"
 2022-78-8,, C,10.08 ¡À 0.05,EI,"2(1H)-Pyrimidinone, 5-fluoro-","Gacek, Thorstad, et al., 1978"
 22037-28-1,, C,9.14,CTS,"Furan, 3-bromo-","Aloisi, Santini, et al., 1975"
 133672-88-5,, C,8.9,PE,"Phosphine, (1-methyl-1,2-propadienyl)-","Lacombe, Dong, et al., 1992"
 65338-31-0,LBLHLM, C,7.49 ¡À 0.02,PE,1-Methylcyclopropyl,"Schultz, Houle, et al., 1984"
 461-24-5,LBLHLM, C,10.27,PE,"Ether, ethyl 2,2,2-trifluoroethyl","Molder, Pikver, et al., 1983"
 4548-06-5,LBLHLM, C,7.54 ¡À 0.02,PE,Cyclobutyl radical,"Schultz, Houle, et al., 1984"
 15157-95-6,LBLHLM, C,7.90 ¡À 0.02,PE,2-Methylallyl radical,"Schultz, Houle, et al., 1984"
 2154-62-3,LBLHLM, C,8.04 ¡À 0.03,PE,But-3-en-1-yl radical,"Schultz, Houle, et al., 1984"
 4755-77-5,Vertical value, C,10.77,PE,ethyl chloroglyoxylate,"Meeks and McGlynn, 1975"
 383-63-1,LLK, C,11,PE,"Acetic acid, trifluoro-, ethyl ester","Sweigart and Turner, 1972"
 406-95-1,, C,10.84,PE,"Acetic acid, 2,2,2-trifluoroethyl ester","Sweigart and Turner, 1972"
 625-35-4,LLK, C,9.4,PE,crotonoyl chloride,"Mohmand, Hirabayashi, et al., 1981"
 18166-02-4,Vertical value, C,9.07,PE,"Methylamine, 1-(trimethylsilyl)-,","Bock, Kaim, et al., 1979"
 126-99-8,, C,8.83 ¡À 0.01,S,"1,3-Butadiene, 2-chloro-","Price and Walsh, 1940"
 3315-42-2,LL, C,7.97,DER,1-Butyn-3-yl radical,"Lias, Bartmess, et al., 1988"
 3465-98-3,Vertical value, C,8.14,PE,"Selenophene, tetrahydro-","Pignataro and Distefano, 1974"
 505-29-3,RDSH, C,8.8 ¡À 0.1,EI,"1,4-Dithiane","Conde-Caprace and Collin, 1969"
 764-44-3,Vertical value; , C,7.8,PE,"(Z)-1,2-Dimethylthioethene","Bock, Wagner, et al., 1974"
 176-56-7,Vertical value, C,8.77,PE,"1,4,6,9-Tetrathia-5-stannaspiro[4.4]nonane","Delmas and Maire, 1978"
 74378-81-7,LBLHLM, C,8,PE,"1,2-Dithiete, 3,4-dimethyl-","Schulz, Schweig, et al., 1983"
 505-23-7,Vertical value; , C,8.33,PE,"1,3-Dithiane","Kobayashi, Gleiter, et al., 1977"
 505-20-4,LLK, C,8.1,PE,"1,2-Dithiane","Wagner and Bock, 1974"
 2373-00-4,LLK, C,7.8,PE,"1,3,5,7-Tetrathiocane","Bock, Schulz, et al., 1981"
 51102-74-0,Vertical value; , C,8.2,PE,"1,1-(Dimethylthio)ethene","Bock, Wagner, et al., 1974"
 764-45-4,Vertical value; , C,7.85,PE,"(E)-Ethylene, 1,2-bis(methylthio)-","Bock, Wagner, et al., 1974"
 108-24-7,LLK, C,~10.0,PE,Acetic anhydride,"Bock, Hirabayashi, et al., 1981"
 600-22-6,Vertical value; , C,9.88,PE,"Propanoic acid, 2-oxo-, methyl ester","McGlynn and Meeks, 1975"
 61485-47-0,, C,8.2,PE,Dimethyl tetrathiooxalate,"Schulz, Schweig, et al., 1983"
 1120-59-8,Vertical value, C,8.11,PE,"Thiophene, 2,3-dihydro-","Kuhn, Klessinger, et al., 1987"
 66348-20-7, , C,10.4,PE,Dimethylbis(trifluoromethyl)germane,"Drake, Eujen, et al., 1982"
 59507-56-1,LLK, C,7.8,PE,"Acetylene, 1,2-dithiomethyl-","Bock, Ried, et al., 1981"
 110-01-0,LBLHLM, C,8.38,PIPECO,"Thiophene, tetrahydro-","Butler and Baer, 1983"
 432-01-9,Vertical value, C,9.56,PE,"Phosphinous amide, N,N-dimethyl-p,p-bis(trifluoromethyl)-","Cowley, Dewar, et al., 1974"
 10152-76-8,LLK, C,8.6,PE,"Sulfide, allyl methyl","Schafer and Schweig, 1972"
 627-50-9,LLK, C,8.21 ¡À 0.01,PI,Ethylvinyl sulfide,"Trofimov, Mel'der, et al., 1975"
 666-62-6,Vertical value, C,9.37,PE,"Diphosphine, 1,1-dimethyl-2,2-bis(trifluoromethyl)-","Cowley, Dewar, et al., 1974"
 123-73-9,, C,9.73,PE,"2-Butenal, (E)-","Van Dam and Oskam, 1978"
 78-94-4,LBLHLM, C,9.66,PE,Methyl vinyl ketone,"Morizur, Mercier, et al., 1982"
 78-85-3,LLK, C,9.92,PE,Methacrolein,"Masclet and Mouvier, 1978"
 431-03-8,LBLHLM, C,9.3,PI,"2,3-Butanedione","Traeger, McLouglin, et al., 1982"
 4170-30-3,LLK, C,9.75,PE,2-Butenal,"Masclet and Mouvier, 1978"
 1191-95-3,LLK, C,9.4 ¡À 0.1,EI,Cyclobutanone,"Rothgery, Holt, et al., 1975"
 2028-63-9,LBLHLM, C,¡Ü10.15,EI,3-Butyn-2-ol,"Holmes and Lossing, 1986"
 1192-16-1, , C,10,PE,"2,3-Dihydrothiophene 1,1-dioxide","Aitken, Gosney, et al., 1984"
 96-48-0,Vertical value; , C,10.26,PE,Butyrolactone,"Gerson, Worley, et al., 1978"
 77-77-0,Vertical value, C,10.56,PE,Divinyl sulphone,"Solouki, Bock, et al., 1975"
 30646-57-2,Vertical value, C,9.89,PE,"Thiirene,dimethyl-1,1-dioxide-","Muller, Schweig, et al., 1975"
 77-79-2,LBLHLM, C,10,PE,"2,5-Dihydrothiophene sulfone","Aitken, Gosney, et al., 1984"
 108-05-4,LLK, C,9.2,PE,Acetic acid ethenyl ester,"Van Dam and Oskam, 1978"
 107-93-7,LLK, C,9.8,PE,"2-Butenoic acid, (E)-","Mohmand, Hirabayashi, et al., 1981"
 543-75-9,LLK, C,8.07 ¡À 0.02,PE,"1,4-Dioxin, 2,3-dihydro-","Bloch, Brogli, et al., 1978"
 1759-53-1,LLK, C,10.64,PE,Cyclopropanecarboxylic acid,"Holmes, Terlouw, et al., 1979"
 96-33-3,LLK, C,9.9,PE,"2-Propenoic acid, methyl ester","Van Dam and Oskam, 1978"
 79-41-4,LLK, C,10.15,PE,"2-Propenoic acid, 2-methyl-","Holmes, Terlouw, et al., 1979"
 18715-02-1,LLK, C,9.5,PE,"1,2-Dioxin, 3,6-dihydro-","Kimura, Katsumata, et al., 1981"
 625-38-7,LLK, C,9.75,PE,3-Butenoic acid,"Mohmand, Hirabayashi, et al., 1981"
 73726-79-1,LBLHLM, C,8,PE,2-Silylfuran,"Zykov, Erchak, et al., 1983"
 503-64-0,LLK, C,10.08,PE,Isocrotonic acid,"Holmes, Terlouw, et al., 1979"
 40392-34-5,Vertical value, C,7.73,PE,"1,2,4,3,5-Triazadiborolidine,1,3,4,5-tetramethyl-","Kroner, Nolle, et al., 1975"
 553-90-2, , C,10,PE,"Ethanedioic acid, dimethyl ester","McGlynn and Meeks, 1976"
 516-05-2,Vertical value, C,10.8,PE,Methylmalonic acid,"Ajo, Ciliberto, et al., 1980"
 31732-40-8,Vertical value, C,7.51,PE,"1,2,4,3,5-Triazadiborolidine,1,2,3,5-tetramethyl-","Kroner, Nolle, et al., 1975"
 930-22-3,LBLHLM, C,9.52,EI,"Oxirane, ethenyl-","Holmes and Lossing, 1986"
 1708-29-8,Vertical value; , C,9.16,PE,"Furan, 2,5-dihydro-","Schmidt, Schweig, et al., 1976"
 59120-04-6,LBLHLM, C,8.68 ¡À 0.03,EI,"1,3-Butadiene-2-ol","Turecek, 1984"
 20334-52-5,LLK, C,8.8,PE,Ethylketene,"Bock, Hirabayashi, et al., 1981"
 7319-38-2,, C,9.65,EST,3-Butenal,"Takhistov and Ponomarev, 1994"
 109-93-3,LLK, C,8.68 ¡À 0.05,EI,Vinyl ether,"Holmes, Burgers, et al., 1981"
 627-41-8,LBLHLM, C,9.78,EI,Methyl propargyl ether,"Holmes and Lossing, 1986"
 13169-01-2,LBLHLM, C,8.79,EI,"Propyne, 1-methoxy","Holmes and Lossing, 1986"
 764-01-2,LBLHLM, C,9.78,EI,2-Butyn-1-ol,"Holmes and Lossing, 1986"
 598-26-5,LBLHLM, C,¡Ü8.38,EI,Dimethylketene,"Holmes and Lossing, 1986"
 70415-58-6,LBLHLM, C,8.47 ¡À 0.03,EI,"(Z)-1,3-Butadien-1-ol","Turecek, Havlas, et al., 1986"
 18913-31-0,LBLHLM, C,8.74,EI,"2,3-Butadien-1-ol","Holmes and Lossing, 1986"
 927-74-2,LBLHLM, C,9.66,EI,3-Butyn-1-ol,"Holmes and Lossing, 1986"
 70411-98-2,LBLHLM, C,8.51 ¡À 0.03,EI,"(E)-1,3-Butadien-1-ol","Turecek, Havlas, et al., 1986"
 13169-00-1,LBLHLM, C,8.64,EI,"1,2-Propadiene, 3-methoxy-","Holmes and Lossing, 1986"
 34736-33-9,Vertical value, C,9.62,PE,"1,1-Difluoro-1-silacyclo-3-pentene","Bertoti, Cradock, et al., 1976"
 119336-68-4,Vertical value, C,8.96,PE,"Silane, diisoselenocyanatodimethyl-","Veszpremi, Pasinszki, et al., 1991"
 693-98-1,Vertical value; , C,8.5,PE,"1H-Imidazole, 2-methyl-","Ramsey, 1979"
 616-47-7,Vertical value; , C,8.66,PE,"1H-Imidazole, 1-methyl-","Ramsey, 1979"
 60-56-0,Vertical value, C,7.41 ¡À 0.03,PE,"2H-Imidazole-2-thione, 1,3-dihydro-1-methyl-","Guimon, Pfister-Guillouzo, et al., 1974"
 87110-37-0,Vertical value, C,9.1,PE,1-Methyl-5-mercaptopyrazole,"Guimon, Pfister-Guillouzo, et al., 1983"
 79208-64-3,Vertical value; , C,8.6,PE,"3H-Pyrazole-3-thione, 1,2-dihydro-1-methyl-","Guimon, Pfister-Guillouzo, et al., 1983"
 14088-58-5,Vertical value, C,8.76 ¡À 0.05,PE,"2-Butanone, 3-diazo-","Modelli, Innorta, et al., 1980"
 44513-62-4,Vertical value, C,9.8 ¡À 0.1,PE,"Propanenitrile, 2-methyl-2-nitroso-","Egdell, Green, et al., 1975"
 5587-62-2,Vertical value, C,10.72,PE,diisocyanatodimethylsilane,"Veszpremi, Pasinszki, et al., 1991"
 13125-51-4,Vertical value, C,9.52,PE,"Silane, diisothiocyanatodimethyl-","Veszpremi, Pasinszki, et al., 1991"
 7111-96-8,Vertical value, C,7.97,PE,"1,3,4-Thiadiazole-2(3H)-thione, 3,5-dimethyl-","Guimon, Pfister-Guillouzo, et al., 1975"
 28873-61-2,Vertical value, C,10.2,PE,"1,3,4-Oxadiazol-2(5H)-one,5,5-dimethyl-","Paine and Werstiuk, 1978"
 504-07-4, , C,10.0 ¡À 0.1,EI,"2,4(1H,3H)-Pyrimidinedione, dihydro-","Verkin, Sukodub, et al., 1976"
 6843-45-4, , C,9.7,PE,"2,4-Imidazolidinedione, 3-methyl-","Vondrak and Cauletti, 1988"
 616-04-6, , C,9.3,PE,"2,4-Imidazolidinedione, 1-methyl-","Vondrak and Cauletti, 1988"
 10191-60-3, , C,9.1,PE,"N-Cyano-S,S'-dimethyldithioimido carbonate","Klasinc, Butkovic, et al., 1980"
 1558-23-2,Vertical value, C,9.08,PE,"1,2,4,5-Tetrazine, 3,6-dimethyl-","Gleiter, Heilbronner, et al., 1972"
 765-39-9,Vertical value, C,8.36,PE,1-Aminopyrrole,"Flitsch, Peeters, et al., 1978"
 3225-31-8,LLK, C,8.2,PE,2-Cyano-2-propyl radical,"Koenig, Snell, et al., 1976"
 1708-32-3, , C,8.4,PE,"Thiophene, 2,5-dihydro-","Schmidt and Schweig, 1973"
 5954-75-6,Vertical value, C,8.89,PE,"Thiirane, ethenyl-","McAlduff and Houk, 1977"
 627-51-0,LLK, C,8.25 ¡À 0.01,PI,Divinyl sulfide,"Trofimov, Mel'der, et al., 1975"
 1748-15-8,LLK, C,8.2,PE,"1,3-Dithiane-2-thione","Guimon, Gonbeau, et al., 1974"
 29138-88-3,Vertical value, C,8.48,PE,"Mercury, isopropylmethyl-","Nugent, Wu, et al., 1976"
 2917-46-6,Vertical value, C,10.32,PE,Bis(chloromethyl)dimethylsilane,"Zykov, Khvostenko, et al., 1981"
 5926-38-5,Vertical value, C,10.25,PE,Dichloromethyltrimethylsilane,"Zykov, Khvostenko, et al., 1981"
 110-85-0,Vertical value; , C,8.98,PE,Piperazine,"Nelsen and Buschek, 1974"
 5771-02-8,, C,7.69,PE,"2-Propanone, methylhydrazone","Zverev, Vovna, et al., 1973"
 7422-90-4,LLK, C,7.54,PE,"Acetaldehyde, dimethylhydrazone","Zverev, Vovna, et al., 1973"
 2489-77-2,RDSH, C,7.93 ¡À 0.05,EI,"Thiourea, trimethyl-","Baldwin, Maccoll, et al., Ind. 1966"
 25554-63-6,, C,8.37,PE,"Hydrazinecarbodithioic acid, 2,2-dimethyl-, methyl ester","Cauletti, Tarli, et al., 1980"
 22550-74-9,Vertical value, C,8.65,PE,"2-Methoxy-3-methyl-1,3,2-oxazaphospholidine","Zverev, Bazhanova, et al., 1986"
 7114-39-8, , C,8.2,PE,"1,3,2-Dioxaphospholane, 2-dimethylamino-","Worley, Hargis, et al., 1982"
 55-18-5,Vertical value, C,8.76,PE,"Ethanamine, N-ethyl-N-nitroso-","Battiste, Davis, et al., 1975"
 632-14-4,RDSH, C,8.94 ¡À 0.05,EI,"Urea, trimethyl-","Baldwin, Kirkien-Konasiewicz, et al., 1966"
 627-44-1,RDSH, C,8.5 ¡À 0.1,EI,"Mercury, diethyl-","Gowenlock, Haynes, et al., 1962"
 814-49-3, , C,10.4,PE,"Phosphorochloridic acid, diethyl ester","Chattorpadhyay, Findley, et al., 1981"
 15108-72-2,Vertical value, C,8.2,PE,"1,2,5-Thiadiazolidine,2,5-dimethyl-,1-oxide","Bock and Solouki, 1974"
 39247-66-0,Vertical value, C,8.03,PE,"1,2,3,4-Tetrazine,1,4,5,6-tetrahydro-1,4-dimethyl-","Bischof, Gleiter, et al., 1975"
 110-81-6,RDSH, C,8.30 ¡À 0.15,EI,Diethyl disulfide,"Hobrock and Kiser, 1963"
 1072-55-5,LBLHLM, C,8.3,PE,"1,3,2-Dithiastannolane,2,2-dimethyl-","Andoni, Cauletti, et al., 1983"
 6628-18-8,Vertical value; , C,8.64,PE,"Ethane, 1,2-bis(methylthio)-","Bock, Wagner, et al., 1972"
 29138-87-2,Vertical value, C,8.78,PE,"Mercury, methyl propyl-","Nugent, Wu, et al., 1976"
 811-50-7,Vertical value, C,8.69 ¡À 0.05,PE,Mercury bis(ethanethiolate),"Biscarini, Colonna, et al., 1981"
 15463-99-7,Vertical value, C,8.77,PE,(E)-C2H5N=NC2H5,"Houk, Chang, et al., 1975"
 821-14-7,LLK, C,8.7 ¡À 0.1,EI,Diethyldiazene,"Tan and Lampe, 1972"
 67144-62-1,Vertical value, C,8.12,PE,"1,2-Diazetidine,1,2-dimethyl-trans-","Nelsen, Peacock, et al., 1978"
 16596-41-1,Vertical value, C,8.681,PE,N-Aminopyrrolidine,"Nelsen and Buschek, 1974"
 52433-27-9,Vertical value; , C,9.14,PE,"1,2-Diazetidine, 1,2-dimethyl-","Nelsen, 1984"
 505-19-1,Vertical value, C,8.64,PE,"Pyridazine,hexahydro-","Nelsen and Buschek, 1974"
 40711-15-7,Vertical value; , C,9.2,PE,"Diaziridine,1,3,3-trimethyl-","Klasinc, Mannschreck, et al., 1994"
 4667-38-3,Vertical value, C,10.78,PE,Dichloro(diethoxy)silane,"Green, Lappert, et al., 1971"
 513-44-0,LLK, C,9.12,PE,"1-Propanethiol, 2-methyl-","Ogata, Onizuka, et al., 1973"
 77205-52-8,LBLHLM, C,8.1,PE,"3,3-Dimethyl-3-silathietane","Traven, Rokitskaya, et al., 1986"
 62943-62-8, , C,7.5,PE,"Ethyne, bis(methylseleno)-","Bock, Ried, et al., 1981"
 352-93-2,LLK, C,8.41,CTS,Diethyl sulfide,"Aloisi, Santini, et al., 1974"
 2524-04-1, , C,8.8,PE,"Phosphorochloridothioic acid, O,O-diethyl ester","Chattorpadhyay, Findley, et al., 1981"
 589-57-1,Vertical value, C,9.5,PE,"Phosphorochloridous acid, diethyl ester","Zverev, Bazhanova, et al., 1986"
 56616-85-4,Vertical value, C,9.3,PE,"4H-1,2,4-Triazole,3-chloro-4,5-dimethyl-","Guimon, Pfister-Guillouzo, et al., 1980"
 56616-94-5,Vertical value, C,9.4,PE,"1H-1,2,4-Triazole,3-chloro-1,5-dimethyl-","Guimon, Pfister-Guillouzo, et al., 1980"
 56616-97-8,Vertical value, C,9.35,PE,"1H-1,2,4-Triazole,5-chloro-1,3-dimethyl-","Guimon, Pfister-Guillouzo, et al., 1980"
 1551-21-9,, C,8.7 ¡À 0.2,EI,"Propane, 2-(methylthio)-","Hobrock and Kiser, 1963"
 109-79-5,LLK, C,9.15,PE,1-Butanethiol,"Ogata, Onizuka, et al., 1973"
 75-66-1,LLK, C,9.03,PE,"2-Propanethiol, 2-methyl-","Ogata, Onizuka, et al., 1973"
 513-53-1,LLK, C,9.1,PE,2-Butanethiol,"Ogata, Onizuka, et al., 1973"
 7049-25-4,Vertical value, C,9.21,PE,1-Silacyclo-3-pentene,"Bertoti, Cradock, et al., 1976"
 819-46-5,LLK, C,9.1,PE,"4,4,4-Trifluorobutylamine","Aue and Bowers, 1979"
 819-06-7,LLK, C,8.42 ¡À 0.03,PI,"Dimethyl(2,2-difluoroethyl)amine","Loguinov, Takhistov, et al., 1981"
 3877-15-4,, C,8.8 ¡À 0.15,EI,"Propane, 1-(methylthio)-","Hobrock and Kiser, 1962"
 872-46-8,Vertical value; , C,9.67,PE,"1,1-Dichloro-1-silacyclo-3-pentene","Khvostenko, Zykov, et al., 1981"
 1745-72-8,Vertical value; , C,10.8,PE,"Silane, dichlorodiethenyl-","Khvostenko, Zykov, et al., 1981"
 56616-96-7,Vertical value, C,9.4,PE,"1H-1,2,4-Triazole,5-bromo-1,3-dimethyl-","Guimon, Pfister-Guillouzo, et al., 1980"
 56616-93-4,Vertical value, C,9.3,PE,"1H-1,2,4-Triazole,3-bromo-1,5-dimethyl-","Guimon, Pfister-Guillouzo, et al., 1980"
 56616-84-3,Vertical value, C,9.25,PE,"4H-1,2,4-Triazole,3-bromo-4,5-dimethyl-","Guimon, Pfister-Guillouzo, et al., 1980"
 63000-06-6,Vertical value, C,7.9,PE,"Tellurium, diethenyl-","Sinegovskaya, Tatarinova, et al., 1991"
 106-99-0,LBLHLM, C,9.082 ¡À 0.004,S,"1,3-Butadiene","Mallard, Miller, et al., 1983"
 592-02-9,LLK, C,8,PE,"Cadmium, diethyl-","Creber and Bancroft, 1980"
 627-53-2,RDSH, C,8.3 ¡À 0.3,EI,Diethyl selenide,"Bogolyubov, Grishin, et al., 1969"
 24692-45-3,Vertical value, C,9.62,PE,"1,2,5-Thia(s(iv))diazole,3,4-dihydro-3,3-dimethyl-","Kroner, Strack, et al., 1973"
 13431-10-2,LLK, C,7.7,PE,"N-Methylimidazolidine, 2-thione","Andreocci, Devillanova, et al., 1980"
 120-79-6,Vertical value, C,8.23,PE,"Ethanedithioamide, N,N'-dimethyl-","Henriksen, Isaksson, et al., 1981"
 681-01-6,Vertical value, C,9.3 ¡À 0.1,PE,"Butane, 2-chloro-2-nitroso-","Egdell, Green, et al., 1975"
 61752-99-6, , C,10.08,PE,"Phosphinic chloride, ethenylethyl-","Zverev and Villem, 1980"
 37454-64-1,Vertical value, C,7.85,PE,"1,2,4,5-Tetrazine, 1,4-dihydro-3,6-dimethyl-","Kaim, 1985"
 31857-31-5,LLK, C,8.5,PE,"N-cyano-N',N''-dimethylguanidine","Klasinc, Butkovic, et al., 1980"
 42786-06-1,, C,8.3,EI,"4H-1,2,4-Triazol-3-amine, 4-ethyl-","Maquestiau, Van Haverbeke, et al., 1975"
 110-56-5,, C,11.03,PE,"Butane, 1,4-dichloro-","Baker, Betteridge, et al., 1971"
 628-39-7,, C,7.4 ¡À 0.3,EI,diethyl diselenide,"Bogolyubov, Grishin, et al., 1969"
 6362-87-4, , C,9.3,PE,"1,3,2-Dioxaphosphorinane, 2-chloro-4-methyl-","Zverev, Villem, et al., 1981"
 926-64-7,LBLHLM, C,8.86,PE,"Acetonitrile, (dimethylamino)-","Molder, Pikver, et al., 1983"
 592-56-3,LBLHLM, C,8.43,PE,"Acetaldehyde, ethylidenehydrazone","Kirste, Poppek, et al., 1984"
 534-26-9,Vertical value, C,8.56,PE,"1H-Imidazole, 4,5-dihydro-2-methyl-","De Jong and van Dam, 1979"
 4388-03-8,Vertical value, C,11.16,PE,"1,1'-Biaziridine","Rademacher, 1975"
 6142-73-0,Vertical value, C,9.6 ¡À 0.1,PE,Methylenecyclopropane,"Bieri, Burger, et al., 1977"
 107-00-6,LLK, C,10.20 ¡À 0.02,PE,1-Butyne,"Bieri, Burger, et al., 1977"
 503-17-3,LLK, C,9.59 ¡À 0.02,PE,2-Butyne,"Bieri, Burger, et al., 1977"
 822-35-5,LLK, C,9.43 ¡À 0.02,PE,Cyclobutene,"Bieri, Burger, et al., 1977"
 590-19-2,LLK, C,9.03,PE,"1,2-Butadiene","Beez, Bieri, et al., 1973"
 18138-14-2,Vertical value; , C,8.37,PE,"N,N-Dimethyl-2-thiooxamide","Henriksen, Isaksson, et al., 1981"
 41168-96-1,Vertical value; , C,8.21,PE,"N',N'-Dimethyl-2-thiooxamide","Henriksen, Isaksson, et al., 1981"
 157-33-5,LBLHLM, C,8.700 ¡À 0.005,PIPECO,Bicyclo[1.1.0]butane,"Bombach, Dannacher, et al., 1983"
 504-61-0,LBLHLM, C,9.15,EI,"2-Buten-1-ol, (E)-","McAdoo and Hudson, 1983"
 78-93-3,LBLHLM, C,9.52,PI,2-Butanone,"Traeger, 1985"
 56640-69-8,LBLHLM, C,8.34 ¡À 0.05,EI,1-Buten-1-ol,"Holmes and Lossing, 1983"
 123-72-8,LBLHLM, C,9.83,PI,Butanal,"Traeger and McAdoo, 1986"
 78-84-2,LBLHLM, C,9.72,PI,"Propanal, 2-methyl-","Traeger and McAdoo, 1986"
 625-60-5,LLK, C,9.2,PE,S-Ethyl ethanethioate,"Nagata, Yamabe, et al., 1975"
 15980-15-1,RDSH, C,8.8 ¡À 0.05,EI,"1,4-Oxathiane","Conde-Caprace and Collin, 1969"
 6290-49-9,RDSH, C,9.56 ¡À 0.05,EI,"Acetic acid, methoxy-, methyl ester","Pignataro, Foffani, et al., 1966"