CAS,Comment,Formula,IE,Method,Name,Refer
 38786-33-3,Vertical value, C,8.15,PE,"1,3,4-Oxadiazolidine,3,4-bis(1,1-dimethylethyl)-","Nelsen and Buschek, 1973"
 31249-95-3,LBLHLM, C,8.2,PE,"4,7,13-Trioxa-1,10-diazacyclopentadecane","Baker, Armen, et al., 1983"
 74035-71-5,Vertical value, C,8.34,PE,"Tin, dimethylbis(diethylphosphinodithioato-s,s')-","Cauletti, Nicotra, et al., 1980"
 20740-06-1,, C,9.6,PI,"1,2-Dicarbadodecarborane(12), 1-octyl-","Orlov, Pustobaev, et al., 1989"
 21077-26-9,, C,7.60 ¡À 0.05,EI,Isocyanobutanetungsten pentacarbonyl,"Distefano, Innorta, et al., 1968"
 29130-96-9,Vertical value, C,7.22,PE,"Chromium,(amino-2-furanylmethylene)pentacarbonyl-","Block and Fenske, 1977"
 14740-77-3,Vertical value, C,7.3,PE,"Chromium,pentacarbonyl(pyridine)-","Weiner, Gin, et al., 1977"
 59661-02-8,Vertical value, C,9.54,PE,"Alanine, N,N-dichloro-2-methyl-, hexyl ester","Gerson, Worley, et al., 1978"
 326-06-7,, C,9.03,EI,"1,3-Butanedione, 4,4,4-trifluoro-1-phenyl-","Orlov, Rashkes, et al., 1988"
 69957-44-4,LBLHLM, C,9,PE,"Benzonitrile, 4-[2-(methylsulfonyl)ethenyl]-","Cauletti, Furlani, et al., 1984"
 26093-31-2,Vertical value, C,8.05,PE,"2H-1-Benzopyran-2-one, 7-amino-4-methyl-","Redchenko, Safronov, et al., 1992"
 606-43-9,LLK, C,8,PE,"2(1H)-Quinolinone, 1-methyl-","Pfister-Guillouzo, Guimon, et al., 1981"
 20766-40-9,LLK, C,9,EI,4-(2-Nitrophenyl)but-3-en-2-one,"Grutzmacher, Schaldach, et al., 1980"
 38713-72-3, , C,7.4,PE,"4,12-Dimethyl-3,5,11,13-tetraazacyl[3.3.3]azine","Boutique, Verbist, et al., 1984"
 83-54-5,, C,7.95,PE,"4(1H)-Quinolinone, 1-methyl-","Pfister-Guillouzo, Guimon, et al., 1981"
 16508-33-1,, C,9.48,PE,"Cyclohexanone,cis-2-chloro-4-(1,1-dimethylethyl)-","Loudet, Grimaud, et al., 1976"
 670-80-4,, C,7.67 ¡À 0.05,PE,"Morpholine, 4-(1-cyclohexen-1-yl)-","Domelsmith and Houk, 1977"
 3423-26-5,, C,8.1 ¡À 0.15,EI,"8-Azabicyclo[3.2.1]octan-3-ol,8-methyl-acetate(ester),exo-","Grutzmacher and Lange, 1978"
 3423-27-6,, C,8.0 ¡À 0.15,EI,"8-Azabicyclo[3.2.1]octan-3-ol, 8-methyl-, acetate (ester), endo-","Grutzmacher and Lange, 1978"
 39926-11-9,LLK, C,7.9,PE,ethyl quinuclidine-2-carboxylate,"Carnovale, Gan, et al., 1981"
 38951-66-5,, C,9.27,EI,"2,4-Azetidinedione,1-methyl-3,3-bis(1-methylethyl)-","Compernolle and DeSchryver, 1975"
 31039-88-0,Vertical value; , C,7.88,PE,"2-Cyclohexenone,3-(N,N-dimethylamino)-5,5-dimethyl-","Pfister-Guillouzo, Geribaldi, et al., 1982"
 26546-68-9,Vertical value, C,7.6,PE,"Phosphine, bis(diethylamino)-ethyl-","Zverev, Vakar, et al., 1986"
 323-09-1,LBLHLM, C,8.23,PE,"Naphthalene, 2-fluoro-","Klasinc, Kovac, et al., 1983"
 321-38-0,LBLHLM, C,8.15,PE,"Naphthalene, 1-fluoro-","Klasinc, Kovac, et al., 1983"
 134-32-7,LBLHLM, C,7.09,PE,1-Naphthalenamine,"Klasinc, Kovac, et al., 1983"
 91-59-8,LBLHLM, C,7.03,PE,2-Naphthalenamine,"Klasinc, Kovac, et al., 1983"
 36412-26-7,, C,9.05,PE,"Isothiazole,4-(phenylmethyl)-","Salmona, Ferre, et al., 1971"
 4753-55-3,LBLHLM, C,7.75,PE,"11-Azabicyclo[4.4.1]undeca-1,3,5,7,9-pentaene","Andrea, Cerfontain, et al., 1984"
 1125-80-0,, C,8.11,PE,"Isoquinoline, 3-methyl-","Schafer, Schweig, et al., 1975"
 5176-20-5,Vertical value, C,8.25 ¡À 0.05,PE,"Naphthalen-1,4-imine,1,4-dihydro-","Morishima, Yoshikawa, et al., 1975"
 91-58-7,LBLHLM, C,8.11,PE,"Naphthalene, 2-chloro-","Klasinc, Kovac, et al., 1983"
 90-13-1,LBLHLM, C,8.13,PE,"Naphthalene, 1-chloro-","Klasinc, Kovac, et al., 1983"
 90-14-2,, C,8.03,PE,"Naphthalene, 1-iodo-","Klasinc, Kovac, et al., 1983"
 17873-29-9,, C,8.6 ¡À 0.2,EI,"Silane,chloro[4-(dimethylsilyl)phenyl]dimethyl-","Dube and Chvalovsky, 1974"
 34259-70-6,, C,8.5 ¡À 0.2,EI,"Silane,chloro[3-(dimethylsilyl)phenyl]dimethyl-","Dube and Chvalovsky, 1974"
 13487-72-4,Vertical value; , C,8.67,PE,"2-Methylene-3,3-dimethyl-bicyclo[2.2.1]heptane-1-amine","Nesmeyanov, Baiden, et al., 1981"
 1614-92-2,LLK, C,7,PE,"Piperidine, 1-(1-cyclopenten-1-yl)-","Domelsmith and Houk, 1977"
 1125-99-1, , C,7.14 ¡À 0.05,PE,"Pyrrolidine, 1-(1-cyclohexen-1-yl)-","Domelsmith and Houk, 1977"
 30540-39-7,Vertical value, C,8.15,PE,"1H-Phosphole,1-butyl-3,4-dimethyl-","Schafer, Schweig, et al., 1976"
 38066-25-0,Vertical value, C,8.05,PE,"1H-Phosphole,1-(1,1-dimethylethyl)-3,4-dimethyl-","Schafer, Schweig, et al., 1976"
 20420-15-9, , C,8.1,PE,"o,o'-Diisopropyl 2-buten-1-ylphosphonothioate","Zverev, Villem, et al., 1981"
 31082-68-5,LLK, C,7,PE,"Piperidine, tungsten pentacarbonyl","Daamen and Oskam, 1978"
 2143-80-8,LLK, C,8.9,EI,4-(2-Fluorophenyl)but-3-en-2-one,"Grutzmacher, Schaldach, et al., 1980"
 2904-59-8,Vertical value, C,7.95,PE,"Benzonitrile,2,4,6-trimethoxy-N-oxide","Houk, Caramella, et al., 1977"
 51294-37-2,, C,8.58 ¡À 0.10,EI,"as-Triazino[6,5-c]quinoline, 2-amino-","Vekey, Tamas, et al., 1985"
 1291-37-8,, C,7.83,CTS,"Pyridinium,2-methoxy-1-(methoxycarbonyl)-2-oxoethylide","Kokars, Kampars, et al., 1975"
 50766-86-4,, C,9.9 ¡À 0.2,EI,1-(3-Nitrophenyl)-1-butanone),"McLafferty and Wachs, 1967"
 3769-94-6,, C,9.9 ¡À 0.2,EI,1-(4-Nitrophenyl)-1-butanone,"McLafferty and Wachs, 1967"
 72454-54-7,LLK, C,8.7 ¡À 0.05,EI,"3-Buten-2-one, 4-(2-bromophenyl)-","Schaldach, Grotemeyer, et al., 1981"
 3815-31-4,LLK, C,8.9,EI,(E)-4-(4-Bromophenyl)-but-3-en-2-one,"Schaldach, Grotemeyer, et al., 1981"
 65300-30-3,LLK, C,8.9,EI,(E)-4-(3-Bromophenyl)-but-3-en-2-one,"Schaldach, Grotemeyer, et al., 1981"
 2904-57-6,Vertical value; , C,8.37,PE,"2,4,6-Trimethylbenzonitrile, N-oxide","Bened, Durand, et al., 1982"
 1010-60-2,LLK, C,9.6,PE,"2-chloro-1,4-naphthoquinone","Redchenko, Freimanis, et al., 1980"
 1733-40-0,, C,8.7 ¡À 0.1,EI,"2-Butenamide,N-phenyl-","Mathar, Bohlmann, et al., 1973"
 7112-00-7,Vertical value, C,7.59,PE,"3H-1,2,4-Triazole-3-thione, 2,4-dihydro-2,4-dimethyl-5-phenyl-","Guimon, Pfister-Guillouzo, et al., 1975"
 32725-29-4,Vertical value, C,7.46,PE,"Imidazo[2,1-b]quinazoline,1,2,3,5-tetrahydro-","de Jong and Van Dam, 1980"
 582-83-2,, C,9.1 ¡À 0.2,EI,"1-Butanone, 1-(4-fluorophenyl)-","McLafferty and Wachs, 1967"
 580-13-2,LL, C,8.18 ¡À 0.03,TRPI,"Naphthalene, 2-bromo-","Gotkis, Naor, et al., 1993"
 90-11-9,LL, C,8.08 ¡À 0.03,TRPI,"Naphthalene, 1-bromo-","Gotkis, Naor, et al., 1993"
 209-81-4,Vertical value, C,7.63,PE,"Pyrrolo[2,1,5-cd]indolizine","Palmer, Leaver, et al., 1977"
 86-57-7,LBLHLM, C,8.59,PE,"Naphthalene, 1-nitro-","Klasinc, Kovac, et al., 1983"
 581-89-5,LBLHLM, C,8.63,PE,"Naphthalene, 2-nitro-","Klasinc, Kovac, et al., 1983"
 68003-55-4,Vertical value, C,8.87,PE,"2-Propen-1-amine,N-(phenylmethylene)-(E)-","Worley, Taylor, et al., 1978"
 5176-30-7,Vertical value, C,8.44 ¡À 0.05,PE,"Naphthalen-1,4-imine,1,2,3,4-tetrahydro-","Morishima, Yoshikawa, et al., 1975"
 53146-18-2,Vertical value, C,8.33,PE,"1-Propen-1-amine, N-(phenylmethylene)-","Worley, Taylor, et al., 1978"
 20342-00-1,Vertical value, C,8.45,PE,"1H-Phosphole,1-phenyl-","Schafer, Schweig, et al., 1973"
 7113-10-2,LBLHLM, C,8.6,EI,2-Phenyl-4-carboxythiazole,"Demian, Simiti, et al., 1984"
 49622-63-1,, C,7.96,PE,"Isophosphinoline, 3-methyl-","Schafer, Schweig, et al., 1975"
 10058-38-5,LBLHLM, C,8.7,EI,2-Phenyl-5-carboxythiazole,"Demian, Simiti, et al., 1984"
 65235-90-7,Vertical value, C,8.91,PE,"1,3-Thiazine-6-one-4-ol, 2-phenyl-","Yakovlev, Mironova, et al., 1987"
 53011-14-6,Vertical value, C,7.78 ¡À 0.05,PE,"Manganese,tricarbonyl[(1,2,3,4,5-¦Ç","Whitesides, Lichtenberger, et al., 1975"
 4981-63-9,, C,9.0 ¡À 0.2,EI,"1-Butanone, 1-(4-chlorophenyl)-","McLafferty and Wachs, 1967"
 1273-74-1,, C,6.83 ¡À 0.05,PI,"Ferrocene, chloro-","Adamchuk, Dmitriev, et al., 1972"
 18175-21-8,LLK, C,8.4 ¡À 0.05,EI,"3-Buten-2-one, 4-(4-iodophenyl)-","Schaldach, Grotemeyer, et al., 1981"
 80992-91-2,LLK, C,8.7 ¡À 0.05,EI,"3-Buten-2-one, 4-(3-iodophenyl)-","Schaldach, Grotemeyer, et al., 1981"
 76293-36-2,LLK, C,8.6 ¡À 0.05,EI,"3-Buten-2-one, 4-(2-iodophenyl)-","Schaldach, Grotemeyer, et al., 1981"
 14586-49-3,LLK, C,7.53 ¡À 0.05,EI,"Pyridine, tungsten pentacarbonyl","Distefano, Foffani, et al., 1971"
 14871-98-8, , C,8.8,PE,"Boron, difluoro(1-phenyl-1,3-butanedionato)-","Borisenko, Vovna, et al., 1987"
 20766-37-4,LLK, C,8.8,EI,"3-Buten-2-one, 4-(2-chlorophenyl)-","Schaldach, Grotemeyer, et al., 1981"
 3160-40-5,LLK, C,8.7,EI,"3-Buten-2-one, 4-(4-chlorophenyl)-","Schaldach, Grotemeyer, et al., 1981"
 30626-02-9,LLK, C,8.9,EI,(E)-4-(3-Chlorophenyl)-but-3-en-2-one,"Schaldach, Grotemeyer, et al., 1981"
 63340-05-6,Vertical value; , C,8.67,PE,"Benzene, 1-chloro-4-(1-methylcyclopropyl)-","Prins, Verhoeven, et al., 1977"
 21077-27-0,, C,7.65 ¡À 0.05,EI,Isocyanobutanemolybdenum pentacarbonyl,"Distefano, Innorta, et al., 1968"
 57603-43-7, , C,7,PE,"Manganese, dicarbonyl(¦Ç","Calabro and Lichtenberger, 1981"
 12152-97-5,, C,7.38 ¡À 0.05,EI,"Dicarbonyl(1,3,2-dioxathiolane 2-oxide-s)((1,2,3,4,5-¦Ç","Distefano, Foffani, et al., 1971"
 7314-85-4,LLK, C,9.31 ¡À 0.05,PE,"Tricyclo[3.3.1.1(3,7)]decane, 2-bromo-","Worley, Mateescu, et al., 1973"
 768-90-1,LBLHLM, C,9.4,PE,1-Bromoadamantane,"Abeywickrema, Della, et al., 1984"
 33151-84-7,LBLHLM, C,8,PE,¦Ç,"Terpstra, Louwen, et al., 1984"
 31053-07-3,, C,8.0 ¡À 0.1,EI,"1,3,2-Diazaphosphetidin-4-one,2-ethyl-2,2-difluoro-2,2-dihydro-1-methyl-3-phenyl-","Baldwin, Loudon, et al., 1977"
 701-30-4,LBLHLM, C,8.59 ¡À 0.02,EI,4-Tert-butylfluorobenzene,"Orlov, Misharev, et al., 1986"
 20651-65-4,, C,9.2 ¡À 0.1,EI,"Benzene,1-butyl-4-fluoro-","Lightner, Majeti, et al., 1972"
 32798-86-0,Vertical value, C,7.86 ¡À 0.05,PE,"Manganese, tricarbonyl[(1,2,3,4,5-¦Ç","Whitesides, Lichtenberger, et al., 1975"
 1271-32-5,RDSH, C,6.76 ¡À 0.05,EI,"Rhenium, bis(¦Ç","Muller and D'Or, 1967"
 33546-29-1,, C,8.5 ¡À 0.2,EI,"Silane,[4-(dimethylsilyl)phenyl]fluorodimethyl-","Dube and Chvalovsky, 1974"
 36318-56-6,Vertical value, C,7.75,PE,"Imidazolidine,2-(2-methylphenylimino)-","de Jong and Van Dam, 1980"
 62635-49-8,, C,7.80 ¡À 0.05,EI,"Thiourea,N-(2-chlorophenyl)-N'-(1-methylethyl)-","Baldwin, Loudon, et al., 1976"
 53666-34-5,, C,7.0 ¡À 0.1,EI,"Methanimidamide,N'-(2-chloro-4-methoxyphenyl)-N,N-dimethyl-","Kuschel and Grutzmacher, 1974"
 62635-47-6,, C,8.15 ¡À 0.05,EI,"Urea,N-(2-chlorophenyl)-N'-(1-methylethyl)-","Baldwin, Loudon, et al., 1976"
 53666-40-3,, C,7.1 ¡À 0.1,EI,"Methanimidamide,N'-(2-chloro-5-methoxyphenyl)-N,N-dimethyl-","Kuschel and Grutzmacher, 1974"
 53666-35-6,, C,7.1 ¡À 0.1,EI,"Methanimidamide,N'(2-chloro-4-methylphenyl)-N,N-dimethyl-","Kuschel and Grutzmacher, 1974"
 53666-41-4,, C,7.1 ¡À 0.1,EI,"Methanimidamide,N'-(2-chloro-5-methylphenyl)-N,N-dimethyl-","Kuschel and Grutzmacher, 1974"
 37778-51-1,LLK, C,8.5,PE,"2-Azabicyclo[2.2.2]octane-2-carboxylic acid, 5-oxo-, ethyl ester","Carnovale, Gan, et al., 1981"
 120-20-7, , C,7.4,PE,"Benzeneethanamine, 3,4-dimethoxy-","Domelsmith, Eaton, et al., 1981"
 3693-69-4,LLK, C,8,PE,"2-Azabicyclo[2.2.2]oct-5-ene-2-carboxylic acid, ethyl ester","Carnovale, Gan, et al., 1981"
 6244-05-9,Vertical value, C,9.44,PE,"Bicyclo[2.2.1]heptane, 1-nitro-2-methylene-3,3-dimethyl-","Nesmeyanov, Baiden, et al., 1981"
 2199-46-4,Vertical value; , C,7.71,PE,"1H-Pyrrole-2-carboxylic acid, 3,4,5-trimethyl, ethyl ester","Cauletti, Giancaspro, et al., 1981"
 55770-78-0,LLK, C,7.5,PE,"1H-Pyrrole-3-carboxylic acid, 2,4,5-trimethyl, ethyl ester","Cauletti, Giancaspro, et al., 1981"
 18995-35-2,Vertical value, C,8.72,PE,1-Chloro-4-tert-butoxybenzene,"Baker, May, et al., 1968"
 23239-32-9,Vertical value; , C,8.16 ¡À 0.06,PE,"Benzeneethanamine, 4-methoxy-¦Á-methyl-","Domelsmith and Houk, 1978"
 1200-03-9,, C,8.54 ¡À 0.05,EI,"Benzene, (4-bromobutoxy)-","Schwarz, Petersen, et al., 1977"
 515-40-2,, C,8.79,PI,1-Chloro-2-methyl-2-phenylpropane,"Domnin, Lakshin, et al., 1985"
 3972-56-3,LBLHLM, C,8.56 ¡À 0.02,EI,"1-Chloro-4-(1,1-dimethylethyl)benzene","Orlov, Misharev, et al., 1986"
 7073-98-5, , C,8.49,PE,"Benzene, 1-tert-butyl-2-chloro-","Baidin, Misharev, et al., 1985"
 35779-04-5,LBLHLM, C,8.35 ¡À 0.02,EI,"Benzene, 1-(1,1-dimethylethyl)-4-iodo-","Orlov, Misharev, et al., 1986"
 26387-48-4, , C,7.88,PE,"1,3,2-Diazaphosphepine, hexahydro-2-phenoxy 1-sulfide","Edmundson, 1983"
 91-66-7,LBLHLM, C,6.98,EQ,"N,N-Diethylaniline","Lias, Jackson, et al., 1985"
 1126-71-2,LLK, C,7.70 ¡À 0.03,PI,"Benzeneethanamine, N,N-dimethyl-","Loguinov, Takhistov, et al., 1981"
 7632-10-2,Vertical value; , C,8.60 ¡À 0.20,PE,"Benzeneethanamine, N,¦Á-dimethyl-","Domelsmith, Munchausen, et al., 1977"
 30417-68-6,Vertical value, C,6.19,PE,"Phosphorane,trimethyl(phenylmethylene)-","Starzewski and Bock, 1976"
 41422-89-3,Vertical value, C,7.34,PE,"1H-1,3,2-Diazaborole,2,3-dihydro-1,3-dimethyl-2-phenyl-","Kroner, Noth, et al., 1974"
 579-66-8,Vertical value; , C,7.77,PE,"Benzenamine, 2,6-diethyl-","Rozeboom, Houk, et al., 1982"
 12288-17-4,, C,7.08,EI,1-(Isopropylamino)ethylidenechromium pentacarbonyl,"Muller and Connor, 1969"
 15710-39-1,Vertical value, C,7.39,PE,"Chromium, pentacarbonyl(piperidine)-","Daamen and Oskam, 1978"
 769-92-6,LBLHLM, C,7.35 ¡À 0.02,EI,4-t-Butylbenzeneamine,"Orlov, Misharev, et al., 1986"
 1126-78-9,, C,7.53,CTS,"Benzenamine, N-butyl-","Farrell and Newton, 1965"
 104-13-2,, C,7.6 ¡À 0.1,EI,"Benzenamine, 4-butyl-","Lightner, Majeti, et al., 1972"
 769-53-9,RDSH, C,7.17,CTS,"N,N,2,4-Tetramethylbenzenamine","Farrell and Newton, 1965"
 4913-13-7,LBLHLM, C,6.95,EQ,"Benzenamine, N,N,3,5-tetramethyl-","Lias, Jackson, et al., 1985"
 56927-89-0,, C,7.61,PI,"Benzenemethanamine,N,N,ar-trimethyl-","Akopyan, Vilesov, et al., 1975"
 769-06-2,LLK, C,7.30 ¡À 0.02,PE,"Benzenamine, N,N,2,6-tetramethyl-","Maier and Turner, 1973"
 29088-49-1,, C,7.7,PI,"Benzeneethanamine, dimethyl-","Akopyan, Vilesov, et al., 1975"
 4052-88-4,LLK, C,7.61 ¡À 0.03,PI,"Benzenemethanamine, N,N,4-trimethyl-","Loguinov, Takhistov, et al., 1981"
 5369-17-5,, C,7.5 ¡À 0.1,EI,m-butylaniline,"Lightner, Majeti, et al., 1972"
 13021-14-2,LLK, C,7.22,PE,"N,2,4,6-Tetramethylbenzenamine","Cowling and Johnstone, 1973"
 12116-92-6,, C,7.13 ¡À 0.05,EI,Bis(cyclopentadienyl)technetium hydride,"Muller and D'Or, 1967"
 42949-22-4,Vertical value, C,7.78 ¡À 0.02,PE,1-Azatricyclo[3.3.1.1,"Worrell, Verhoeven, et al., 1974"
 4150-37-2,, C,7.38,CTS,"N,N-Dimethyl-p-ethyl-aniline","Farrell and Newton, 1965"
 3972-65-4,LBLHLM, C,8.50 ¡À 0.02,EI,"Benzene, 1-bromo-4-(1,1-dimethylethyl)-","Orlov, Misharev, et al., 1986"
 14062-78-3,Vertical value; , C,8.9,PE,"N,N,4-Trimethyl benzamide","Gal, Geribaldi, et al., 1985"
 7291-00-1,Vertical value; , C,8.4,PE,"N,N-Dimethyl 4-methoxybenzamide","Gal, Geribaldi, et al., 1985"
 3282-56-2,LBLHLM, C,9.29 ¡À 0.02,EI,1-tert-Butyl-4-nitrobenzene,"Orlov, Misharev, et al., 1986"
 20651-75-6,, C,10.1 ¡À 0.1,EI,"Benzene, 1-butyl-4-nitro-","Lightner, Majeti, et al., 1972"
 20651-76-7,, C,9.9 ¡À 0.1,EI,1-butyl-3-nitrobenzene,"Lightner, Majeti, et al., 1972"
 51497-09-7,Vertical value; , C,8.01 ¡À 0.06,PE,Tenamfetamine,"Domelsmith and Houk, 1978"
 2124-31-4,Vertical value; , C,7.69,PE,"4-N,N-Dimethylaminoacetophenone","Distefano, Granozzi, et al., 1987"
 1688-71-7,, C,8.0 ¡À 0.2,EI,"1-Butanone, 1-(4-aminophenyl)-","McLafferty and Wachs, 1967"
 2198-53-0,Vertical value, C,8.70 ¡À 0.05,PE,"Acetamide, N-(2,6-dimethylphenyl)-","Szepes, Distefano, et al., 1974"
 2034-41-5,, C,8.1 ¡À 0.2,EI,1-(3-Aminophenyl)-1-butanone,"McLafferty and Wachs, 1967"
 29823-47-0,Vertical value, C,8.82,PE,"Acetamide,N-methyl-N-(2-methylphenyl)-","Nakagaki, Kobayashi, et al., 1980"
 4096-21-3,LBLHLM, C,6.8,PE,N-Phenylpyrrolidine,"Rozeboom, Houk, et al., 1982"
 1612-65-3,Vertical value, C,8.60 ¡À 0.05,PE,"N-Methyl-1,2,3,4-tetrahydroisoquinoline","Morishima, Yoshikawa, et al., 1975"
 19198-94-8,LBLHLM, C,7.1 ¡À 0.1,PE,N-(2-Methylphenyl)azetidine,"Rozeboom, Houk, et al., 1982"
 78376-90-6,Vertical value; , C,7.88 ¡À 0.06,PE,"N-(2,6-Dimethylphenyl)aziridine","Rozeboom, Houk, et al., 1982"
 78376-89-3,Vertical value; , C,7.80 ¡À 0.06,PE,"N-(2,4-Dimethylphenyl)aziridine","Rozeboom, Houk, et al., 1982"
 12153-02-5,, C,7.19 ¡À 0.05,EI,"Dicarbonyl((1,2,3,4,5-¦Ç","Distefano, Foffani, et al., 1971"
 87871-02-1,Vertical value, C,7.21,PE,"Iridium, (¦Ç","Green, Powell, et al., 1984"
 4939-75-7,, C,7.4 ¡À 0.1,EI,4-Isopropylbenzyl radical,"Harrison, Kebarle, et al., 1961"
 4981-64-0,, C,8.8 ¡À 0.2,EI,4'-bromobutyrophenone,"McLafferty and Wachs, 1967"
 64120-46-3,Vertical value, C,9.1,PE,"2-Methylene-3,3-dimethylbicyclo[2.2.1]hept-1-yl mercury chloride","Nesmeyanov, Baiden, et al., 1981"
 4017-64-5,Vertical value; , C,9.11,PE,"1-Chloro-2-methylene-3,3-dimethylbicyclo[2.2.1]heptane","Nesmeyanov, Baiden, et al., 1981"
 935-56-8,LLK, C,9.3,PE,"Adamantane, 1-chloro-","Worley, Mateescu, et al., 1973"
 75181-07-6, , C,8.1,PE,"Zirconium, (¦Ç","Terpstra, Louwen, et al., 1984"
 768-93-4,LBLHLM, C,8.6,PE,1-Iodoadamantane,"Abeywickrema, Della, et al., 1984"
 75181-08-7, , C,8.1,PE,"Hafnium, ¦Ç","Terpstra, Louwen, et al., 1984"
 12129-06-5,LBLHLM, C,8.1,PE,¦Ç,"Terpstra, Louwen, et al., 1984"
 54474-28-1,Vertical value, C,8.1 ¡À 0.1,PE,"Tantalum,bis(¦Ç","Green, Jackson, et al., 1975"
 3302-87-2,Vertical value, C,8.35,PE,"Phospholane,1-phenyl-","Schafer, Schweig, et al., 1973"
 16668-83-0,LLK, C,9.46,PE,2-fluoroadamantane,"Worley, Mateescu, et al., 1973"
 1638-86-4,LLK, C,8.2,PE,"Phosphonous acid, phenyl-, diethyl ester","Zverev, Villem, et al., 1981"
 5709-94-4,Vertical value, C,7.48,PE,"1,3,2-Diazaborolidine,1,3-dimethyl-2-phenyl-","Kroner, Noth, et al., 1974"
 21494-36-0,, C,7.43 ¡À 0.05,EI,"Iron,tetracarbonyl(triethylphosite-p","Distefano, Innorta, et al., 1968"
 109975-51-1, , C,7.3,PE,"1,3,2,4,5-Dithiadiazacobaltole, ¦Ç","Granozzi, Casarin, et al., 1987"
 19740-18-2,LBLHLM, C,6.1 ¡À 0.2,DER,1-Adamantyl radical,"Zauer and Takhistov, 1986"
 71229-51-1, , C,7.5,PE,"2,8,9-Trioxa-5-aza-1-silabicyclo[3.3.3]undecane, 1,3,7,10-tetramethyl-","Brodskaya, Voronkov, et al., 1987"
 79-55-0,, C,7.23 ¡À 0.05,PE,Pempidine,"Rozeboom and Houk, 1982"
 108696-11-3,Vertical value, C,7.69,PE,"Octahydroazocine,1-isopropyl-","Spanka, Boese, et al., 1987"
 6480-47-3,Vertical value, C,7.99,PE,1-Methyldecahydroazecine,"Spanka and Rademacher, 1986"
 21517-94-2,LBLHLM, C,6.73 ¡À 0.03,PE,Tricyclo[3.3.1.1,"Kruppa and Beauchamp, 1986"
 13652-22-7,Vertical value, C,8.25,PE,"Phosphine, dibutylvinyl-","Schmidt, Schweig, et al., 1975"
 67398-96-3,Vertical value, C,8.06,PE,"Bicyclo[2.2.1]heptan-2-amine,3-methoxy-N,N-dimethyl-(endo,endo)-","Kunz, Lindig, et al., 1978"
 108696-09-9,Vertical value, C,7.96,PE,"Hexahydroazocine-5-one,1-isopropyl-","Spanka, Boese, et al., 1987"
 14389-38-9, , C,7.8,PE,"1-Azacyclodecan-2-one, 1-methyl-","Treschanke and Rademacher, 1985"
 14387-89-4, , C,7.25,PE,"Aziridinone, 1,3-bis(1,1-dimethylethyl)-","Treschanke and Rademacher, 1985"
 67425-06-3,Vertical value, C,8.13,PE,"Bicyclo[2.2.1]heptan-2-amine,3-methoxy-N,N-dimethyl-(2-endo,3-exo-)-","Kunz, Lindig, et al., 1978"
 6425-41-8,Vertical value, C,8.18 ¡À 0.03,PE,"Morpholine, 4-cyclohexyl-","Colonna, Distefano, et al., 1975"
 19641-26-0,Vertical value, C,8.2,PE,1-Methyloctahydroazecin-6-one,"Spanka and Rademacher, 1986"
 2016-57-1,LLK, C,8.5,PE,1-Decanamine,"Aue and Bowers, 1979"
 31023-92-4,LLK, C,6.94 ¡À 0.09,PE,1-Azabicyclo[3.3.3]undecane,"Aue, Webb, et al., 1975"
 21086-43-1,Vertical value; , C,7.61,PE,(Z)-3-Piperidino-2-pentene,"Muller, Previdoli, et al., 1981"
 7731-02-4,Vertical value, C,7.96 ¡À 0.03,PE,"Pyrrolidine,1-cyclohexyl-","Colonna, Distefano, et al., 1975"
 64776-29-0,Vertical value, C,7.76,PE,"9-Azabicyclo[3.3.1]nonane,9-ethyl-","Nelsen, Kessel, et al., 1980"
 45842-68-0,Vertical value, C,7.99 ¡À 0.015,PE,"1-Azabicyclo[2.2.2]octane,4-(1-methylethyl)-","Bieri and Heilbronner, 1974"
 4141-67-7,Vertical value, C,7.41,PE,"Pentaphospholane,pentaethyl-","Cowley, Dewar, et al., 1978"
 3607-03-2,Vertical value, C,6.92,PE,"Phosphane,[bis(trimethylsilyl)methylene]trimethyl-","Starzewski, Richter, et al., 1976"
 58972-45-5,Vertical value, C,6.66,PE,"Arsorane, [bis(trimethylsilyl)methylene]trimethyl-","Starzewski, Richter, et al., 1976"
 15664-75-2,LBLHLM, C,7.9,PE,¦Ì,"Granozzi, Tondello, et al., 1982"