CAS,Comment,Formula,IE,Method,Name,Refer
 114693-79-7,Vertical value, C,9.07 ¡À 0.05,PE,"Oxirane, 2,3-di(trimethylsilyl)-","Block, Yencha, et al., 1988"
 78-10-4,Vertical value, C,9.77,PE,Tetraethyl silicate,"Green, Lappert, et al., 1971"
 102101-03-1, , C,6.6,PE,"1,2,4,5-Tetrazine, 3,6-dihydro-3,6-bis(trimethylsilyl)","Kaim, 1985"
 21312-72-1,LL, C,7.7,PE,"Palladium bis(o,o'-diethyldithiophosphate)","Ciliberto, Di Bella, et al., 1990"
 37583-01-0,LL, C,6.9,PE,"Platinum[ii]bis(o,o'-diethyldithiophosphate)","Ciliberto, Di Bella, et al., 1990"
 60041-25-0,Vertical value, C,8.25,PE,"Stannane, ethylidenebis[trimethyl-","Hosomi and Traylor, 1975"
 103547-55-3,Vertical value, C,9.4,PE,"Boranamine, b,b-di-tert-butyl-","Noth and Prigge, 1986"
 59150-16-2,Vertical value, C,8.17,PE,"Phosphine, ethyl-ethoxy-(diethylamino)-","Zverev, Vakar, et al., 1986"
 4267-00-9,LBLHLM, C,6.50 ¡À 0.05,EQ,Tetraethylhydrazine,"Mautner(Meot-Ner), Nelsen, et al., 1984"
 1744-71-4,Vertical value, C,8.65,PE,"Hydrazine, 1,2-dibutyl-","Rademacher, 1975"
 60678-72-0,LBLHLM, C,6.65 ¡À 0.05,EQ,"1,1-Di(isoporpyl)-2,2-dimethylhydrazine","Rumack, 1986"
 60678-71-9,LBLHLM, C,6.72 ¡À 0.05,EQ,"1,2-Dimethyl-1,2-dipropylhydrazine","Rumack, 1986"
 60678-66-2,Vertical value, C,7.65,PE,"Hydrazine, 1,1-dimethyl-2,2-dipropyl-","Nelsen, Peacock, et al., 1976"
 68970-08-1,Vertical value, C,8.37,PE,"Hydrazine, trimethyl neopentyl-","Nelsen, 1984"
 3711-37-3,Vertical value, C,8.7,PE,"Hydrazine, 1,2-bis(2-methylpropyl)-","Rademacher, 1975"
 7422-80-2,RDSH, C,7.47 ¡À 0.05,PI,"Hydrazine, 1,1-dibutyl-","Akopyan, Vilesov, et al., 1963"
 13304-29-5,Vertical value, C,7.1,PE,"2-Tetrazene, 1,1,4,4-tetraethyl-","Bischof, Gleiter, et al., 1975"
 71899-35-9,Vertical value, C,7.63,PE,"1,2,4,5-Tetrazine,hexahydro-1,2,3,4,5,6-hexamethyl-trans-","Katritzky, Baker, et al., 1980"
 3167-69-9,, C,8.69,PE,"Phosphoramidic acid, N,N-diethyl-, diethyl ester","Zverev and Villem, 1980"
 65411-95-2,Vertical value, C,8.83,PE,"Silane, (1,2-dibromo-1,2-ethenediyl)bis(trimethyl-, (E)-","Ensslin, Schmidtke, et al., 1977"
 65173-82-2,Vertical value; , C,7.5,PE,"1,3,2-Diazaphospholidine, 2-diethylamino-1,3-dimethyl-","Worley, Hargis, et al., 1982"
 37017-22-4,Vertical value, C,8.42,PE,"Platinum, bis(trimethylarsine)bis(trifluoromethyl)-","Yang, Bancroft, et al., 1990"
 1450-29-9,Vertical value; , C,8.63,PE,"Disilane, 1,2-diethenyl-1,1,2,2-tetramethyl-","Khvostenko, Zykov, et al., 1981"
 14630-40-1,LBLHLM, C,9.2,PE,Bis(trimethylsilyl)acetylene,"Matsumoto, Akaiwa, et al., 1986"
 20841-12-7,, C,8.74 ¡À 0.05,EI,Bis(isobutyl)beryllium,"Chambers, Coates, et al., 1969"
 592-27-8,LL, C,9.76,EST,"Heptane, 2-methyl-","Luo and Pacey, 1992"
 540-84-1,RDSH, C,9.91,PE,"Pentane, 2,2,4-trimethyl-","Al-Joboury and Turner, 1964"
 111-65-9,LL, C,10.01,EST,Octane,"Luo and Pacey, 1992"
 592-13-2,, C,9.76,EST,"Hexane, 2,5-dimethyl-","Luo and Pacey, 1992"
 594-82-1,LL, C,9.79,EST,"Butane, 2,2,3,3-tetramethyl-","Luo and Pacey, 1992"
 78-00-2,, C,11.1,EI,Tetraethyllead,"deRidder and Dijkstra, 1967"
 3040-63-9,, C,7.8,EI,Tetraethyldiphosphine,"Bogolyubov, Grishin, et al., 1969"
 114693-66-2, , C,8.1,PE,"Thiirane, 2,3-di(trimethylsilyl)-","Block, Yencha, et al., 1988"
 18178-59-1,RDSH, C,9.32 ¡À 0.04,EI,"trans-1,2-Bis(trimethylsilyl)ethylene","Bock and Seidl, 1968"
 4669-92-5,, C,8.3 ¡À 0.3,EI,Tetraethyldistibine,"Bogolyubov, Grishin, et al., 1969"
 6231-76-1,Vertical value, C,8.78,PE,"Silane, 1,2-ethanediylbis[trimethyl-","Hosomi and Traylor, 1975"
 631-36-7,LLK, C,8.9,PE,"Silane, tetraethyl-","Potzinger, Ritter, et al., 1975"
 63835-91-6,Vertical value, C,8.8,PE,"Cadmium, bis(trimethylsilyl)methyl]-","Creber and Bancroft, 1980"
 100207-68-9,Vertical value; , C,5.3,PE,Molybdenum tetrakis(dimethylamide),"Chisholm, Cowley, et al., 1980"
 51351-75-8,Vertical value; , C,7.34,PE,"Platinum, bis(trimethylphosphine)dimethyl-","Yang, Bancroft, et al., 1990"
 3704-44-7,LLK, C,7.7,PE,"Trisilane, octamethyl-","Bock and Ensslin, 1971"
 19756-04-8,Vertical value, C,7.23,PE,"Zirconium, tetrakis(dimethylamino)-","Gibbins, Lappert, et al., 1975"
 1066-77-9,Vertical value, C,7.67,PE,Tetrakis(dimethylamino)tin,"Gibbins, Lappert, et al., 1975"
 3275-24-9,Vertical value, C,7.13,PE,titanium tetrakis(dimethylammonium),"Gibbins, Lappert, et al., 1975"
 19824-56-7,Vertical value, C,6.2,PE,Tetrakis(dimethylamino)vanadium,"Gibbins, Lappert, et al., 1975"
 4299-49-4,, C,7.99 ¡À 0.05,EI,Cyclo-tetrakis(dimethylphosphonitrile),"Branton, Brion, et al., 1970"
 20740-05-0,, C,9.44,PI,"1,2-Dicarbadodecaborane(12), 1-hexyl-","Orlov, Pustobaev, et al., 1989"
 75482-36-9,, C,9.39,PI,"1,7-Dicarbadodecaborane(12), 1-hexyl-","Orlov, Pustobaev, et al., 1989"
 7344-40-3,Vertical value, C,8.48,PE,"Germane, tetrakis(dimethylamino)-","Gibbins, Lappert, et al., 1975"
 1066-63-3, , C,7.6,PE,"Trigermane, octamethyl-","Traven', Redchenko, et al., 1982"
 79512-24-6,, C,8.83 ¡À 0.05,EI,Cyclo-tetrakis(dimethoxyphosphonitrile),"Branton, Brion, et al., 1970"
 4712-51-0, , C,7.6,PE,"Silane, [thiobis(methylene)]bis[thiomethyl-","Bock, Meuret, et al., 1990"
 53213-29-9,Vertical value, C,~7.5,PE,"1,2,4,5-Tetraaza-3,6-disilacyclohexane,1,2,3,3,4,5,6,6-octamethyl-","Bock, Kaim, et al., 1980"
 59400-23-6,Vertical value, C,7.72,PE,"Platinum, bis(trimethylphosphite)dimethyl-","Yang, Bancroft, et al., 1990"
 107-51-7,Vertical value; , C,10.04,PE,"Trisiloxane, octamethyl-","Ermakov, Kirichenko, et al., 1982"
 53323-99-2,Vertical value, C,~7.2,PE,"Boranediamine,N,N,N',N'-tetramethyl-1-(1,2,3,5-tetramethyl-1,2,4,3,5-triazaborolidin-4-yl)-","Kroner, Nolle, et al., 1975"
 53324-00-8,Vertical value, C,~7.29,PE,"Boranediamine,N,N,N',N'-tetramethyl-1-(2,3,4,5-tetramethyl-1,2,4,3,5-triazadiborolidin-1-yl)-","Kroner, Nolle, et al., 1975"
 19782-68-4,Vertical value, C,7.5,PE,"Hafnium, tetrakis(dimethylamino)-","Gibbins, Lappert, et al., 1975"
 70660-01-4,, C,8.17,EI,"1,3,5,2,4,6-Triazatriphosphorine, 2,2,4,6-tetrakis(dimethylamino)-4,6-difluoro-","Clare and Sowerby, 1981"
 15701-66-3, , C,6.9,PE,"Nickel[II] bis(O,O'-diethyldithiophosphate)","Ciliberto, Di Bella, et al., 1990"
 16743-23-0,, C,7.24 ¡À 0.05,PE,"Nickel, bis(o,o-diethylphosphorodithioato-s,s')-","Maier and Sweigart, 1976"
 1630-79-1, , C,7.58,PE,"Diborane(4)tetramine, octamethyl-","Bock and Fuss, 1971"
 53246-16-5,Vertical value, C,7.57,PE,"Phosphonous diamide,N,N,N',N'-tetramethyl-p-(1,2,3,5-tetramethyl-1,2,4,3,5-triazaborolidin-4-yl)-","Kroner, Nolle, et al., 1975"
 54154-16-4,Vertical value, C,7.09,PE,"1,2,4,5,3,6-Tetrazadiborine-3,6-diamine,tetrahydro-N,N,N',N',1,2,4,5-octamethyl-","Kroner, Nolle, et al., 1974"
 696-44-6,LLK, C,7.26,PE,"Benzenamine, N,3-dimethyl-","Cowling and Johnstone, 1973"
 21485-16-5,, C,7.62 ¡À 0.05,EI,Triethylphosphine cobalt dicarbonyl nitrosyl,"Distefano, Innorta, et al., 1968"
 41924-81-6, , C,9.4,PE,"Thiophosphinic acid, diethenyl-, s-butyl ester","Zverev, Villem, et al., 1981"
 2750-71-2,LLK, C,8.54 ¡À 0.01,PE,"Hex-1-yne-3-ene, 3-ethyl-","Carlier, Mouvier, et al., 1979"
 4249-09-6,RDSH, C,8.0 ¡À 0.1,EI,"1,5,5-Trimethylcyclopentadiene","Meyer and Harrison, 1964"
 3172-56-3,LLK, C,7.99,PE,"3,3'-Bithiophene","Meunier and Pfister-Guillouzo, 1977"
 6247-55-8,Vertical value; , C,7.91,PE,Benzodithiene,"Breitenstein, Schulz, et al., 1982"
 88312-71-4, , C,6.2,PE,"2,2'-Ethanediylidenebis(1,3-dithiole","Kobayashi, Yoshida, et al., 1984"
 53690-50-9,Vertical value; , C,8.73,PE,"1,6-Dithiacyclodeca-3,8-diyne","Gleiter, Rittinger, et al., 1991"
 825-44-5,LBLHLM, C,9.1,PE,"Benzo[b]thiophene, 1,1-dioxide","Bened, Durand, et al., 1982"
 12080-18-1,RDSH, C,7.84,PE,"Iron,tricarbonyl[(1,2,3,4-¦Ç","Dewar and Worley, 1969"
 32731-93-4,Vertical value, C,8.11,PE,"Iron, tricarbonyl[(1,2,3,4-¦Ç)-2-methyl-1,3-butadiene]-, stereoisomer","Worley, Webb, et al., 1980"
 623-27-8,RDSH, C,10.13 ¡À 0.01,EI,"1,4-Benzenedicarboxaldehyde","Kuhn, Levins, et al., 1968"
 3496-32-0,Vertical value; , C,8.06 ¡À 0.02,PE,Phenyl ketene,"Sammynaiken and Westwood, 1989"
 77627-49-7,LBLHLM, C,9.64,PE,"Bicyclo[4.2.0]octa-1(6),3-diene-2,5-dione","Gleiter, Jahne, et al., 1985"
 127750-98-5, , C,9.1,PE,"7-Oxabicyclo[2.2.1]heptane-2,5-dione, 3,6-dimethylidene-","Roser, Carrupt, et al., 1990"
 6911-51-9,LBLHLM, C,7.5,PE,"Thiophene, 2,2'-dithiobis-","Bock and Roth, 1983"
 12080-06-7,LL, C,7.56 ¡À 0.10,"LS,EI","Iron,methyldicarbonyl-¦Ð-cyclopentadienyl","Bruch, Bunau, et al., 1995"
 2404-89-9,, C,7.91,CTS,"2,3'-Bithiophene","Kraak and Wynberg, 1968"
 327-25-3, , C,7.2,PE,"Thieno[3,4-d]thiepin","Gleiter, Krennrich, et al., 1985"
 492-97-7,RDSH, C,7.83,CTS,"2,2'-Bithiophene","Kraak and Wynberg, 1968"
 3330-14-1,Vertical value, C,12.78,PE,"Propane, 1-[1-[difluoro(1,2,2,2-tetrafluoroethoxy)methyl]-1,2,2,2-tetrafluoroethoxy]-1,1,2,2,3,3,3-heptafluoro-","Hardin and Sandorfy, 1975"
 5101-44-0,LLK, C,8.5,EI,"Phenol,2-ethynyl-","Tang, McGowan, et al., 1979"
 3469-06-5,RDSH, C,8.99,EI,Benzocyclobuten-1(2H)-one,"Mamer, Lossing, et al., 1970"
 271-89-6,LLK, C,8.8,EI,Benzofuran,"Tang, McGowan, et al., 1979"
 95-15-8,LLK, C,8.13 ¡À 0.015,PE,Benzo[b]thiophene,"Gusten, Klasinc, et al., 1976"
 121-91-5,, C,10. ¡À 0.2,EI,Isophthalic acid,"Benoit, 1973"
 100-21-0,, C,9.9 ¡À 0.2,EI,Terephthalic acid,"Benoit, 1973"
 85-44-9,LBLHLM, C,10.1,PE,Phthalic anhydride,"Dewar and Tien, 1985"
 4732-72-3,Vertical value, C,9.65 ¡À 0.05,PE,"2,3-Benzofurandione","Galasso, Colonna, et al., 1977"
 3988-99-6,Vertical value, C,8.4,PE,"Thiophene,2,2'-thiobis-","Meunier and Pfister-Guillouzo, 1977"
 39184-83-3,, C,8.1,EI,"Ethanethioamide,N-(2-chlorophenyl)-","Baldwin, Loudon, et al., 1976"
 588-07-8,, C,8.7 ¡À 0.2,EI,"Acetamide, N-(3-chlorophenyl)-","Gamble, Gilbert, et al., 1970"
 18931-82-3,, C,8.2 ¡À 0.1,EI,"Formamide,N-(2-chloro-5-methylphenyl)-","Kuschel and Grutzmacher, 1974"
 18931-77-6,, C,8.1 ¡À 0.1,EI,"Formamide,N-(2-chloro-4-methylphenyl)-","Kuschel and Grutzmacher, 1974"
 539-03-7,LLK, C,8.07 ¡À 0.03,EI,"Acetamide, N-(4-chlorophenyl)-","Benezra and Bursey, 1971"
 533-17-5,, C,8.55,EI,o-Chloroacetanilide,"Baldwin, Loudon, et al., 1976"
 53666-47-0,, C,8.0 ¡À 0.1,EI,"Formamide,N-(2-chloro-5-methoxyphenyl)-","Kuschel and Grutzmacher, 1974"
 2941-62-0,Vertical value, C,7.7,PE,"6-Benzothiazolamine,2-methyl-","Salmona, Faure, et al., 1975"
 38602-81-2,Vertical value, C,8.3,PE,"1,1'-Bi-1H-pyrrole","Flitsch, Peeters, et al., 1978"
 4099-71-2,, C,9.98 ¡À 0.08,PIPECO,"Phenol, 2,4-dinitro-6-ethyl-","Riley, Baer, et al., 1991"
 552-32-9,, C,8.85,EI,"Acetamide, N-(2-nitrophenyl)-","Baldwin, Loudon, et al., 1976"
 104-04-1,, C,9.1 ¡À 0.2,EI,"Acetamide, N-(4-nitrophenyl)-","Gamble, Gilbert, et al., 1970"
 53666-45-8,, C,8.0 ¡À 0.1,EI,"Formamide,N-(2-chloro-4-methoxyphenyl)-","Kuschel and Grutzmacher, 1974"
 122-28-1,, C,8.8 ¡À 0.2,EI,"Acetamide, N-(3-nitrophenyl)-","Gamble, Gilbert, et al., 1970"
 24046-80-8,, C,7.68 ¡À 0.05,PE,"9,10-Diazapentacyclo[4.4.0.0","Boyd, Bunzli, et al., 1976"
 3544-25-0,, C,8.26 ¡À 0.04,EI,4-Aminobenzyl cyanide,"Buchs, 1970"
 30855-79-9,Vertical value; , C,8.9,PE,N-(p-Nitrophenyl)aziridine,"Crimaldi, Lichter, et al., 1982"
 4172-91-2, , C,7.9,PE,N-Methyl-N'-phenylcarbodiimide,"Okubo, Ito, et al., 1985"
 4623-24-9,, C,8.31 ¡À 0.05,EI,3-Aminophenylacetic acid nitrile,"Buchs, 1970"
 4412-39-9,Vertical value, C,9.27,PE,"Benzene,(2,2-dichloroethyl)-","Shudo, Kobayashi, et al., 1977"
 3807-38-3,Vertical value, C,8.06,PE,"Thiophene,3,3'-thiobis-","Meunier and Pfister-Guillouzo, 1977"
 270-82-6,, C,7.75,PE,Benzo[c]thiophene,"Clark, Gleiter, et al., 1973"
 28192-05-4,Vertical value; , C,8.3,PE,4-Chlorophenylaziridine,"Crimaldi, Lichter, et al., 1982"
 40331-38-2,, C,8.17 ¡À 0.03,PI,"Benzenamine,2,5-dichloro-3,6-dimethyl-4-nitro-","Potapov, Kardash, et al., 1972"
 127793-17-3, , C,8.2,PE,"1-Thia-6-selenacyclodeca-3,8-diyne","Gleiter, Rittinger, et al., 1991"
 5698-59-9,Vertical value, C,9.85 ¡À 0.05,PE,"Benzo(c)thiophene-1,3-dione","Galasso, Colonna, et al., 1977"
 1822-73-7,, C,7.96 ¡À 0.01,PI,"Benzene, (ethenylthio)-","Trofimov, Mel'der, et al., 1975"
 28504-85-0,Vertical value, C,8.7,PE,"Dithieno[3,4-:3',4'-d]thiophene,4,4-dioxide-","Mellink and Janssen, 1978"
 3807-53-2,Vertical value, C,8.4,PE,"Dithieno[3,2-b:2',3'-d]thiophene,4,4-dioxide-","Mellink and Janssen, 1978"
 28504-86-1,Vertical value, C,8.5,PE,"Dithieno[2,3-b:3',2'-d]thiophene,7,7-dioxide-","Mellink and Janssen, 1978"
 493-57-2,Vertical value, C,9.14 ¡À 0.05,PE,"Benzo(b)thiophene-2,3-dione","Galasso, Colonna, et al., 1977"
 35783-97-2,Vertical value, C,8.39,PE,"9-Thiabicyclo[4.2.1]nona-2,4,7-triene","Muller, Schweig, et al., 1974"
 34560-79-7,, C,8.48 ¡À 0.02,EI,"1,3-Oxathiane, 2,2,4,6-tetramethyl-, cis-","Jalonen, Pasanen, et al., 1973"
 34560-78-6,, C,8.45 ¡À 0.01,EI,"1,3-Oxathiane,2,2,4,6-tetramethyl,trans-","Jalonen, Pasanen, et al., 1973"
 62024-60-6,Vertical value, C,6,PE,Dimethyltetrathiafulvalene,"Sato, Seki, et al., 1981"
 6383-11-5,Vertical value; , C,9.23,PE,"Bicyclo[4.2.0]octa-1,3,5-triene-7,8-dione","Gleiter, Schang, et al., 1978"
 6499-39-4,Vertical value; , C,8.9,PE,"2,3-Dimethylpyrazino[2,3-b]pyrazine","Gleiter, Spanget-Larsen, et al., 1984"
 2471-92-3, , C,8.3,PE,"Benzo[c]thiophene, 1,3-dihydro-","Traven, Rodin, et al., 1989"
 16696-68-7,Vertical value, C,8.1,PE,"Ethanethione,1-phenyl-","Rao, 1975"
 111-13-7,RDSH, C,9.75,EI,2-Octanone,"Potzinger and Bunau, 1969"
 589-63-9,RDSH, C,9.10 ¡À 0.05,PI,4-Octanone,"Vilesov, 1960"
 67059-49-8,Vertical value; , C,9.44,PE,"1,1-Diethoxy-1-silacyclo-3-pentene","Khvostenko, Zykov, et al., 1981"
 933-40-4, , C,9,PE,"Cyclohexane, 1,1-dimethoxy-","Lambert, Xue, et al., 1986"
 29887-60-3,LLK, C,8.7,PE,"Cyclohexane, 1,2-dimethoxy-, trans-","Brown, 1976"
 30363-80-5,LLK, C,8.6,PE,"Cyclohexane, 1,2-dimethoxy-, cis-","Brown, 1976"
 22431-89-6,Vertical value; , C,9.35,PE,"1,2-Dioxane, 3,3,6,6-tetramethyl-","Brown, 1975"
 294-93-9,LBLHLM, C,8.8,PE,12-Crown-4,"Baker, Armen, et al., 1983"
 5857-36-3,LLK, C,8.797 ¡À 0.005,PE,"2,2,4-Trimethyl-3-pentanone","Hernandez, Masclet, et al., 1977"
 127793-18-4, , C,8.2,PE,"1,6-Diselenacyclodeca-3,8-diyne","Gleiter, Rittinger, et al., 1991"
 1112-55-6,LLK, C,9.3,PE,"Silane, tetraethenyl-","Schweig, Weidner, et al., 1973"
 766-77-8,LLK, C,8.92 ¡À 0.15,EI,"Silane, dimethylphenyl-","Gaidis, Briggs, et al., 1971"
 95388-86-6, , C,10,PE,"1,5,6-Triazabicyclo[3.1.0]hexane, 4,4-dimethyl-2,2,6-tris(trifluoromethyl)-","Kaupp and Dohle, 1988"
 70520-16-0,Vertical value, C,8.6,PE,"Iron, [(2,3-¦Ç)-2-butenal]tetracarbonyl-","Van Dam and Oskam, 1979"
 36914-79-1,, C,8.21 ¡À 0.03,EI,"Phenol, 2,4-dibromo-, acetate","Benezra and Bursey, 1972"
 28165-72-2,, C,8.42 ¡À 0.03,EI,"Phenol,2,6-dibromo-,acetate","Benezra and Bursey, 1972"
 56595-13-2,Vertical value, C,9.55,PE,"2,7-Naphthyridine,1,3,6,8-tetrafluoro-","Van Den Ham, Beerlage, et al., 1975"
 33319-19-6,Vertical value, C,9.5,PE,"Quinoxaline,5,6,7,8-tetrafluoro-","Van Den Ham and Van Der Meer, 1973"
 12287-67-1,Vertical value, C,8.5,PE,"Iron, tetracarbonyl[(2,3-¦Ç)-methyl-2-propenoate]-","Van Dam and Oskam, 1979"
 14878-96-7,, C,8.07 ¡À 0.01,EI,"Iron, hexacarbonylbis[¦Ì-(methanethiolato)]di-, (Fe-Fe)","Junk, Preston, et al., 1970"
 59346-70-2,LBLHLM, C,9,PE,Pentacyclo[4.2.0.0,"Honegger, Heilbronner, et al., 1985"
 5304-21-2,Vertical value, C,8.55,PE,"Benzothiazole,6-bromo-2-methyl-","Salmona, Faure, et al., 1975"
 12553-66-1,, C,7.96 ¡À 0.05,EI,"Cobalt, hexacarbonyl(ethyne)di-","Gambino, Vaglio, et al., 1974"
 99-81-0, , C,9.5,PE,p-Nitrophenacyl bromide,"Distefano, Granozzi, et al., 1987"
 39184-82-2,, C,8.3,EI,"Ethanethioamide,N-(2-fluorophenyl)-","Baldwin, Loudon, et al., 1976"
 698-53-3,Vertical value; , C,8.2,PE,4-Fluorophenylaziridine,"Crimaldi, Lichter, et al., 1982"
 399-31-5,, C,8.65,EI,"Acetamide, N-(2-fluorophenyl)-","Baldwin, Loudon, et al., 1976"
 351-83-7,, C,8.20 ¡À 0.03,EI,"Acetanilide, 4'-fluoro-","Benezra and Bursey, 1971"
 30834-33-4,Vertical value; , C,9,PE,"2,3-Dichlorobenzothiophene sulfoxide","Bened, Durand, et al., 1982"
 3593-75-7,Vertical value, C,7.8,PE,"Dithieno[3,2-b:2',3'-d]thiophene","Mellink and Janssen, 1978"
 13090-49-8,Vertical value, C,7.88,PE,"Dithieno[3,4-b:3',4'-d]thiophene","Mellink and Janssen, 1978"
 236-63-5,Vertical value, C,7.86,PE,"Dithieno[2,3-b:3',2'-d]thiophene","Mellink and Janssen, 1978"
 6165-96-4,LLK, C,9.09 ¡À 0.02,PE,"1,3,5,7-Octatetrayne","Allan, Heilbronner, et al., 1976"
 1849-38-3,, C,11.34,EI,"Silane, tetraethynyl-","MacLean and Sacher, 1974"
 91-15-6,LLK, C,9.9,PE,"1,2-Benzenedicarbonitrile","Palmer, Moyes, et al., 1980"
 626-17-5,Vertical value; , C,10.2,PE,"1,3-Dicyanobenzene","Palmer, Moyes, et al., 1980"
 69657-20-1,Vertical value; , C,8.89,PE,"1,1-Diethyl-1-sila-3-cyclopentene","Khvostenko, Zykov, et al., 1981"
 35797-92-3,Vertical value, C,7.35,PE,"Chromium, pentacarbonyl[1-(methylthio)ethylidene]-","Block and Fenske, 1977"
 20540-69-6,LLK, C,7.5 ¡À 0.1,EI,"Chromium, pentacarbonyl(1-methoxyethylidene)-","Fischer, Kreiter, et al., 1971"
 402-31-3,Vertical value; , C,10.57,PE,"Benzene, 1,3-bis(trifluoromethyl)-","Cabelli, Cowley, et al., 1982"
 87027-12-1,LBLHLM, C,8.2,PE,Di-(2-furyl)silane,"Zykov, Erchak, et al., 1983"
 123-11-5,LLK, C,8.43,PE,"Benzaldehyde, 4-methoxy-","Behan, Johnstone, et al., 1976"
 103-82-2,LBLHLM, C,~8.26,PE,Benzeneacetic acid,"Klasinc, Kovac, et al., 1983"
 93-58-3,LLK, C,9.32 ¡À 0.03,PI,"Benzoic acid, methyl ester","McLoughlin and Traeger, 1979"
 122-79-2,, C,8.6 ¡À 0.05,PE,"Acetic acid, phenyl ester","Bouchoux, 1978"
 99-93-4,RDSH, C,8.70 ¡À 0.03,EI,"Acetophenone, 4'-hydroxy-","Foffani, Pignataro, et al., 1964"
 118-90-1,LLK, C,9.1,PE,"Benzoic acid, 2-methyl-","Meeks, Wahlborg, et al., 1981"
 99-94-5,LLK, C,9.2 ¡À 0.2,EI,"Benzoic acid, 4-methyl-","Benoit, 1973"
 121-71-1,RDSH, C,8.67 ¡À 0.05,EI,"Ethanone, 1-(3-hydroxyphenyl)-","Pignataro, Foffani, et al., 1966"
 99-04-7,LLK, C,9.4 ¡À 0.2,EI,"Benzoic acid, 3-methyl-","Benoit, 1973"
 77627-56-6,LBLHLM, C,9.3,PE,"Bicyclo[4.2.0]oct-3-en-2,5-dione","Gleiter, Jahne, et al., 1985"
 137-18-8,LLK, C,9.58,PE,"2,5-Cyclohexadiene-1,4-dione, 2,5-dimethyl-","Kobayashi, 1975"
 582-24-1,, C,9.33 ¡À 0.05,EI,"Ethanone, 2-hydroxy-1-phenyl-","Pignataro, Foffani, et al., 1966"
 623-26-7,LLK, C,10.1,PE,"1,4-Benzenedicarbonitrile","Neijzen and DeLange, 1978"
 6573-64-4, , C,9,PE,"1,6-Dioxacyclodeca-3,8-diyne","Gleiter, Rittinger, et al., 1991"
 110944-98-4, , C,9.2,PE,"Ethanone, 2-iodo-1-(4-nitrophenyl)-","Distefano, Granozzi, et al., 1987"
 433-19-2,RDSH, C,10.43 ¡À 0.05,EI,"Benzene, 1,4-bis(trifluoromethyl)-","Gallegos and Klaver, 1967"
 60526-48-9,LLK, C,8.1,PE,"Bicyclo[2.2.1]hept-5-ene-2,3-dione, 5-methyl-","Dougherty, Blankespoor, et al., 1979"
 100-09-4,LLK, C,9.0 ¡À 0.2,EI,"Benzoic acid, 4-methoxy-","Benoit, 1973"
 586-38-9,LLK, C,9.1 ¡À 0.2,EI,"Benzoic acid, 3-methoxy-","Benoit, 1973"
 119-36-8,, C,7.65,EI,Methyl salicylate,"Yeo and Williams, 1970"
 65828-00-4,Vertical value, C,8.6,PE,"Thiophene,2,2'-thiobis[4-bromo-","Meunier and Pfister-Guillouzo, 1977"
 65827-99-8,Vertical value, C,8.1,PE,"Thiophene,3,3'-thiobis[2-bromo-","Meunier and Pfister-Guillouzo, 1977"
 28504-81-6,Vertical value, C,8.2,PE,"Thiophene,3,3'-thiobis[4-bromo-","Meunier and Pfister-Guillouzo, 1977"
 28504-80-5,Vertical value, C,8.5,PE,"Thiophene,2,2'-thiobis[3-bromo-","Meunier and Pfister-Guillouzo, 1977"
 156-38-7,, C,8.12 ¡À 0.02,EI,"Benzeneacetic acid, 4-hydroxy-","Benezra and Bursey, 1972"
 614-75-5,, C,8.16 ¡À 0.02,EI,"Benzeneacetic acid, 2-hydroxy-","Benezra and Bursey, 1972"
 25352-00-5,Vertical value, C,9.49,PE,"Bicyclo[3.2.1]octane-2,3,4-trione","Bischof, Gleiter, et al., 1975"
 81640-32-6,LLK, C,8.4,PE,"Bicyclo[3.1.0]hexane-2,3,4-trione,1,5-dimethyl-","Beck, Hofmann, et al., 1981"
 98-86-2,LLK, C,9.1 ¡À 0.1,EI,Acetophenone,"Dallinga, Nibbering, et al., 1981"
 104-87-0,RDSH, C,9.33 ¡À 0.05,EI,"Benzaldehyde, 4-methyl-","Foffani, Pignataro, et al., 1964"
 122-78-1,, C,9.3 ¡À 0.1,EI,Benzeneacetaldehyde,"Dallinga, Nibbering, et al., 1981"