CAS,Comment,Formula,IE,Method,Name,Refer
 7803-52-3,LL, H,¡Ü9.40 ¡À 0.02,PI,Stibine,"Ruscic and Berkowitz, 1993"
 7693-26-7,LBLHLM, HK,8.0 ¡À 1.0,S,potassium hydride,"Farber, Srivastava, et al., 1982"
 25817-87-2,, HfN,¡Ü10.,EI,hafnium nitride,"Kohl and Stearns, 1974"
 14332-21-9,LL, HIO,9.811 ¡À 0.020,PI,Hypoiodous acid,"Monks, Stief, et al., 1995"
 93401-23-1,, HK,3.55 ¡À 0.08,PI,Dipotassium monohydroxide,"Kuan and Jiang, 1990"
 10034-85-2,LLK, HI,10.38,PE,Hydrogen iodide,"Kimura, Katsumata, et al., 1981"
 13776-99-3,LL, HTi,6,DER,Titanium monohydride,"Lias, Bartmess, et al., 1988"
 15086-10-9,, H,13.603,S,Tritium,"Garcia and Mack, 1965"
 12385-13-6,LL, H,13.59844,EVAL,Hydrogen atom,"Lide, 1992"
 13777-23-6,Vertical value, HfI,9.53,PE,Hafnium tetraiodide,"Egdell and Orchard, 1978"
 12136-26-4,, InO,13.3 ¡À 0.2,EI,Indium monoxide,"Gomez, Chatillon, et al., 1982"
 12030-19-2,RDSH, InTe,7.6 ¡À 0.5,EI,Indium monotelluride,"Colin and Drowart, 1968"
 12401-67-1,, InTe,8.9 ¡À 0.5,EI,Indium ditelluride,"Colin and Drowart, 1968"
 39297-77-3,LLK, K,3.3 ¡À 0.1,PI,Potassium pentamer,"Herrmann, Leutwyler, et al., 1978"
 62462-59-3,, Ho,6.2 ¡À 0.7,EI,Diholmium monoxide,"Kordis and Gingerich, 1977"
 62462-60-6,, Ho,7.5 ¡À 0.1,EI,Diholmium dioxide,"Kordis and Gingerich, 1977"
 12596-28-0,, Ho,6.0 ¡À 1.0,EI,Holmium dimer,"Cocke and Gingerich, 1971"
 13813-41-7,LBLHLM, HoI,9.6 ¡À 0.3,EI,holmium triiodide,"Ajtony, Balthazarne, et al., 1987"
 7440-58-6,LL, Hf,6.82507,EVAL,hafnium,"Lide, 1992"
 12401-70-6,LBLHLM, KO,7.1 ¡À 0.1,S,Monopotassium monooxide,"Butman, Kudin, et al., 1984"
 7440-60-0,LL, Ho,6.0216,EVAL,holmium,"Lide, 1992"
 12333-35-6,, InSb,6.6 ¡À 0.4,EI,Indium diantimonide,"DeMaria, Drowart, et al., 1959"
 12030-22-7,LBLHLM, In,8.4 ¡À 0.2,EI,Diindium monoxide,"Gomez, Chatillon, et al., 1982"
 12030-27-2,, In,7.1 ¡À 0.5,EI,Diindium monotelluride,"Colin and Drowart, 1968"
 12396-29-1,, In,7.2 ¡À 0.5,EI,Diindium ditelluride,"Colin and Drowart, 1968"
 1312-41-0,, InSb,6.6 ¡À 0.4,EI,indium antimonide,"DeMaria, Drowart, et al., 1959"
 61178-97-0,RDSH, In,5.8 ¡À 0.3,EI,Indium dimer,"DeMaria, Drowart, et al., 1959"
 12030-24-9,, In,6.4 ¡À 0.5,EI,diindium trisulphide,"Colin and Drowart, 1968"
 12196-52-0,, In,7.6 ¡À 0.5,EI,Diindium monosulfide,"Colin and Drowart, 1968"
 12030-25-0,, In,7.5 ¡À 0.5,EI,Diindium selenide,"Colin and Drowart, 1968"
 12030-14-7,RDSH, InS,7.0 ¡À 0.5,EI,indium sulphide,"Colin and Drowart, 1968"
 1312-42-1,RDSH, InSe,7.1 ¡À 0.5,EI,"Indium, compound with selenium (1:1)","Colin and Drowart, 1968"
 37279-39-3,LLK, K,3.3 ¡À 0.1,PI,Potassium trimer,"Herrmann, Leutwyler, et al., 1978"
 39297-79-5,LBLHLM, K,3.40 ¡À 0.10,PI,Potassium heptamer,"Kappes, Radi, et al., 1985"
 12333-39-0,LBLHLM, KRb,3.9 ¡À 0.1,PI,"Potassium, compound with rubidium (1:1)","Kappes and Schumacher, 1985"
 89091-89-4,, K,3.65 ¡À 0.04,PI,Tripotassium monoxide,"Dao, Peterson, et al., 1984"
 12030-83-0,LBLHLM, KLi,4.57 ¡À 0.04,PI,"Lithium, compound with potassium (1:1)","Kappes and Schumacher, 1985"
 7440-09-7,LL, K,4.34066,EVAL,potassium,"Lide, 1992"
 20205-91-8,, BP,¡Ü13. ¡À 2.,EI,boron monophosphide,"Gingerich, 1972"
 70478-90-9,RDSH, Be,11.1 ¡À 0.4,EI,Diberyllium dioxide,"Theard and Hildenbrand, 1964"
 18495-45-9,Vertical value, B,10.3 ¡À 0.1,PE,"Cyclo-1,3,5-trithia-2,4,6-triborane, 2,4,6-tribromo-","Aziz, Porwol, et al., 1988"
 289-56-5,RDSH, B,13.5 ¡À 0.5,EI,Boroxine,"Sholette and Porter, 1963"
 13779-24-3,LLK, B,10.46,PE,"Borazine,2,4,6-trifluoro-","Brundle, Robin, et al., 1972"
 13703-95-2,RDSH, B,13.9 ¡À 0.1,EI,Trifluoroboroxine,"Bidinosti and Coatsworth, 1970"
 13709-94-9,LBLHLM, BKO,8. ¡À 1.,EI,potassium metaborate,"Farber and Srivastava, 1985"
 13703-97-4,, B,9.3 ¡À 0.3,EI,"Borothiine-2,4,6-trithiol","Edwards, Wiedemeier, et al., 1966"
 14325-24-7,, C,7.26 ¡À 0.10,EI,Phthalocyanine manganese,"Eley, Hazeldine, et al., 1973"
 147-14-8,, C,7.37 ¡À 0.10,EI,"Copper phthalocyanine, CI 74160","Eley, Hazeldine, et al., 1973"
 132-16-1,, C,7.22 ¡À 0.10,EI,Phthalocyaninatoiron,"Eley, Hazeldine, et al., 1973"
 190-66-9, , C,7.04,PE,"Dibenzo[a,g]coronene","Clar and Schmidt, 1977"
 190-72-7, , C,6.92,PE,"Dibenzo[a,j]coronene","Clar and Schmidt, 1977"
 190-74-9, , C,6.88,PE,"Naphtho[2,3-a]coronene","Clar and Schmidt, 1977"
 14320-04-8,, C,7.37 ¡À 0.10,EI,Phthalocyanine zinc,"Eley, Hazeldine, et al., 1973"
 3317-67-7,, C,7.46 ¡À 0.10,EI,Cobalt phthalocyanine,"Eley, Hazeldine, et al., 1973"
 14055-02-8,, C,7.45 ¡À 0.10,EI,Nickel phthalocyanine,"Eley, Hazeldine, et al., 1973"
 6569-51-3,LLK, B,9.88,PE,s-Triazaborane,"Brundle, Robin, et al., 1972"
 448-70-4, , C,6.2,PE,"2,8,12,18-Tetraethyl-3,7,13,18-tetramethyl-21H,23H-porphin","Dupuis, Roberge, et al., 1980"
 26608-34-4, , C,6,PE,Etioporphyrin iii,"Dupuis, Roberge, et al., 1980"
 448-71-5,Vertical value, C,6.3,PE,"2,7,12,17-Tetraethyl-3,8,13,18-tetramethyl-21H,23H-porphin","Dupuis, Roberge, et al., 1980"
 81939-61-9, , C,5.9,PE,"Uranium, bis[(¦Ç","Bruno, Ciliberto, et al., 1982"
 196-46-3,, C,6.36,PE,"Naphtho[2,1,8-yza]hexacene","Clar and Schmidt, 1979"
 574-93-6,, C,7.36 ¡À 0.10,EI,Phthalocyanine,"Eley, Hazeldine, et al., 1973"
 31541-03-4,LLK, C,6.99,PE,Benzo[fgh]trinaphthylene,"Clar and Schmidt, 1979"
 31541-02-3,LLK, C,7.02,PE,"Benzo[h]naphtho[1,2,3,4-rst]pentaphene","Clar and Schmidt, 1979"
 189-45-7,LLK, C,6.42,PE,"Naphthaceno[2,1,12-qra]naphthacene","Clar and Schmidt, 1979"
 189-43-5,LLK, C,6.65,PE,Benzo[xyz]heptaphene,"Clar and Schmidt, 1979"
 192-54-1,, C,7.26,PE,"Dibenzo[hi,uv]hexacene","Clar and Schmidt, 1979"
 31541-07-8,LLK, C,6.94,PE,"Anthra[1,2,3,4-rst]pentaphene","Clar and Schmidt, 1979"
 192-60-9,, C,6.91,PE,"Dibenzo[fg,wx]hexacene","Clar and Schmidt, 1979"
 313-71-3,, C,6.6,PE,"Dibenzo[de,yz]hexacene","Clar and Schmidt, 1979"
 54816-20-5, , C,6,PE,Cu-etioporphyrin-iii,"Dupuis, Roberge, et al., 1980"
 89389-51-5, , C,4.9,PE,"Molybdenum, tetrakis[¦Ç","Bandy, Davies, et al., 1983"
 56464-75-6,Vertical value, B,11.1,PE,1-Thiadodecaborane(11),"Fehlner, Wu, et al., 1980"
 190-26-1,LLK, C,6.71,PE,Ovalene,"Clar, Robertson, et al., 1981"
 57539-71-6,, C,6.75,CTS,"Cyclopenta-1,3-dienide,4-diphenyl-5-pyridinium-2,3-(naphtha-1,8-diyl)inner salt","Kreicberga, Kampars, et al., 1975"
 12009-99-3,RDSH, Be,10.5 ¡À 0.5,EI,Diberyllium monoxide,"Theard and Hildenbrand, 1964"
 92141-86-1,, BCsO,8.6 ¡À 0.5,EI,Cesium metaborate,"Asano, Yasue, et al., 1984"
 1304-56-9,, BeO,10.1 ¡À 0.4,EI,beryllium oxide,"Theard and Hildenbrand, 1964"
 12232-29-0,, Be,12.8 ¡À 0.4,EI,Diberyllium tetrachloride,"Hildenbrand and Theard, 1969"
 12133-58-3,, CeS,14. ¡À 1.,EI,Cerium disulfide,"Gingerich, Pupp, et al., 1972"
 12014-82-3,LLK, CeS,6.0 ¡À 0.6,EI,cerium sulphide,"Gingerich, Pupp, et al., 1972"
 7790-87-6,LBLHLM, CeI,8.7,PE,cerium triiodide,"Ruscic, Goodman, et al., 1983"
 7440-68-8,, At,9.2 ¡À 0.4,S,Astatine,"Finkelnburg and Humbach, 1955"
 1493-68-1,LLK, C,8.36 ¡À 0.05,PE,"Pyrene, decafluoro-","Bastide, Hall, et al., 1979"
 42858-85-5,LBLHLM, C,10.1,PE,"3,3,4,4,7,7,8,8,11,11,12,12,15,15,16,16-Hexadecafluoropentacyclo[12.2.0.0.0.0","Heilbronner, Wirz, et al., 1984"
 10294-34-5,LLK, BCl,11.64 ¡À 0.02,PE,Boron trichloride,"Bassett and Lloyd, 1971"
 933-18-6,Vertical value, B,10.55,PE,"2,4,6-Trichloroborazine","Brundle and Jones, 1973"
 23753-64-2,RDSH, B,10.48 ¡À 0.04,EI,"Pentaborane(9),2-bromo-","Murphy and Enrione, 1970"
 23753-67-5,RDSH, B,9.58 ¡À 0.05,EI,"Pentaborane(9),1-bromo-","Murphy and Enrione, 1970"
 58568-92-6,Vertical value, B,9.52,PE,"1-Thiadecaborane(9),10-bromo-","Fehlner, Wu, et al., 1980"
 58575-43-2,Vertical value, B,9.51,PE,"1-Thiadecaborane(9), 6-bromo-","Fehlner, Wu, et al., 1980"
 74773-74-3,Vertical value, C,7.66,PE,"9-Azabicyclo[3.3.1]nonan-3-one, 9-(9-azabicyclo[3.3.1]non-9-yl)","Nelsen, Kessel, et al., 1980"
 108204-52-0, , C,6.4,PE,"2,8,9-Trioxa-5-aza-1-silabicyclo[3.3.3]undecane-1-methanamine, 3,7,10-trimethyl, N-phenyl-","Peel and Dianxum, 1988"
 54739-35-4,Vertical value, C,7.47 ¡À 0.03,PE,"Spiro[furan-3(2H),2'-furo[3,4-d][1,3]oxathiol]-4-ol,4,4',5,6'-tetrahydro-2,2,4',4',5,5,6',6',-octamethyl-","Hohne, Marschner, et al., 1974"
 52805-90-0,, C,8.36,CTS,"Benzene,1,1'-thiobis[2,6-dimethyl-","Aloisi, Santini, et al., 1974"
 13250-88-9, , C,8,PE,"Sulfide, bis(4-methylbenzyl)-","Traven, Rodin, et al., 1989"
 78497-37-7,Vertical value, C,7.86,PE,"e-Diazene, bis(bicyclo[2.2.2]oct-1-yl)-","Engel, Gerth, et al., 1988"
 54222-83-2,, C,7.83 ¡À 0.04,EI,"1,2-Ethanediamine-N,N'-bis[(2-aminophenyl)methyl]-","Gilbert, Taylor, et al., 1973"
 69020-19-5,Vertical value, C,7.7,PE,"Silane,[(2,5-dimethyl-1,4-phenylene)bis(methylene)]bis[trimethyl-","Bock and Kaim, 1978"
 62347-03-9,Vertical value, C,7.95,PE,"Silane,[(4,6-dimethyl-1,3-phenylene)bis(methylene)]bis[trimethyl-","Bock and Kaim, 1978"
 151844-08-5,, C,8.6,PE,"1,4:5,8-Dimethanonaphthalene, 9-(1,1-dimethylethoxy)-1,4,4a,5,8,8a-hexahydro stereoisomer","Mackenzie, Howard, et al., 1993"
 59950-40-2,Vertical value, C,6.9,PE,"2H-1,5-Propano-1H-naphtho[1,8-bc]-1,5-diazocine,3,4-dihydro-","Alder, Goode, et al., 1976"
 522-24-7,, C,8.25 ¡À 0.07,CTS,fenethazine,"Poltorakov, Pirnazarova, et al., 1973"
 74244-38-5,Vertical value, C,7.9,PE,"Iron tricarbonyl(2,3,6,5-tetrakis(methylene)-7-oxabicyclo[2.2.1]heptane, exo-endo-","Granozzi, Ajo, et al., 1982"
 74227-07-9,Vertical value, C,7.8,PE,"Di-exo-[iron tricarbonyl](2,3,5,6-tetrakis(methylene)-7-oxabicyclo[2.2.1]heptane","Granozzi, Ajo, et al., 1982"
 4792-83-0,LLK, C,7.2,PE,"Diazene, bis(4-ethoxyphenyl)-, 1-oxide","Millefiori, Ciliberto, et al., 1981"
 63378-87-0,, C,7.30 ¡À 0.05,PE,"Pyridazine,hexahydro-1,2-diphenyl-","Rademacher, Bass, et al., 1977"
 59950-11-7,, C,8.25 ¡À 0.05,EI,"Benzene,[(4-phenoxybutyl)thio]-","Schwarz, Petersen, et al., 1977"
 40715-68-2,, C,8.18 ¡À 0.05,EI,"Benzene,1-methoxy-4-(3-phenylpropyl)-","Kuck and Grutzmacher, 1978"
 67081-95-2,, C,8.2 ¡À 0.5,EI,"Benzene,1-methoxy-3-(3-phenylpropyl)-","Kuck and Grutzmacher, 1978"
 30078-89-8,, C,8.5 ¡À 0.1,EI,"Benzenebutanol, ¦Á-phenyl-","Groenwold, Chess, et al., 1984"
 1636-34-6,Vertical value, C,9.01 ¡À 0.02,PE,"2,3-Butanediol, 2,3-diphenyl-","Penn, Lin, et al., 1991"
 3459-88-9,, C,8.41 ¡À 0.05,EI,"Benzene,1,1'-[1,4-butanediylbis(oxy)]bis-","Schwarz, Petersen, et al., 1977"
 75516-65-3,Vertical value, C,6.24 ¡À 0.04,PE,"Molybdenum, bis(6-methylpyridine-2-oxy)bis(acetato)di-(mo-mo)","Garner, Hillier, et al., 1980"
 76698-72-1, , C,7.8,PE,"Selenide, bis(4-methylbenzyl)-","Traven, Rodin, et al., 1989"
 54532-97-7,Vertical value, C,8.50 ¡À 0.02,PE,"1,1'-Biphenyl, 2-butyl-","Maier and Turner, 1972"
 115752-79-9, , C,8,PE,"6,7-Benzotetracyclo[7.3.0.0","Fessner, Sedelmeier, et al., 1987"
 20264-61-3,Vertical value, C,8.12 ¡À 0.02,PE,"3,5,7,9-Dodecatetrayne, 2,2,11,11-tetramethyl-","Heilbronner, Jones, et al., 1978"
 78777-18-1,, C,7.59 ¡À 0.05,EI,"Bis(5,5-dimethyl-2,4-hexanedionato)copper","Holtzclaw, Lintvedt, et al., 1969"
 12277-45-1,, C,6.90 ¡À 0.05,EI,Cyclopentadienyl(triisopropylphosphine)manganese dicarbonyl,"Muller and Fenderl, 1969"
 112426-34-3,Vertical value, C,6.4,PE,"Iron, bis(¦Ç","Stahl, Ma, et al., 1987"
 12626-73-2,LL, C,7.31,PE,Indigo,"Rademacher and Kowski, 1992"
 85893-68-1,Vertical value, C,6.9,PE,"Ruthenium, bis(¦Ç","Stahl, Ma, et al., 1987"
 84477-45-2, , C,7.2,PE,"2,7-Di-tert-butylthiepin,4,5-dimethyl-","Gleiter, Krennrich, et al., 1985"
 16291-77-3,, C,8.7,PE,"Perhydropyrene, # 4","Heilbronner, Honegger, et al., 1984"
 1020-87-7,, C,8.25,PE,"Benzene,1,4-bis(2,2-dimethylpropyl)","Bock, Kaim, et al., 1978"
 129-00-0,LL, C,7.4256 ¡À 0.0006,LS,Pyrene,"Hager and Wallace, 1988"
 206-44-0,LL, C,7.9 ¡À 0.1,TRPI,Fluoranthene,"Ling and Lifshitz, 1995"
 19909-44-5,LBLHLM, C,8.5,PE,"1,4-Diphenylbutane-1,2,3,4-tetraone","Gleiter and Dobler, 1985"
 12566-66-4,, C,6.65 ¡À 0.05,EI,"Tungsten,hexacarbonylbis(¦Ç","Krause and Bidinosti, 1975"
 1145-98-8, , C,7.7,PE,"1,2-Diphenyltetramethyldisilane","Traven', Redchenko, et al., 1981"
 1450-16-4,, C,8.38 ¡À 0.15,EI,"Disilane,1,1,1,2-tetramethyl-2,2-diphenyl-","Gaidis, Briggs, et al., 1971"
 1678-56-4,, C,7.45 ¡À 0.05,EI,Cyclo-tetrakis(bis(dimethylamino)phosphonitrile),"Branton, Brion, et al., 1970"
 42073-03-0,Vertical value, C,7.95,PE,"4,6-Ethenodibenz[b,f]oxepine,(Z,Z)-","Boschi and Schmidt, 1973"
 36230-20-3,Vertical value, C,7.24,PE,Cycloocta[def]biphenylene,"Wilcox, Blain, et al., 1986"
 3526-04-3,Vertical value, C,7.14 ¡À 0.03,PE,"Azuleno[2,1,8-ija]azulene","Batich, Heilbronner, et al., 1974"
 18442-29-0,LLK, C,8.2,PE,"1,1'-Biphenyl,2,2'-diethynyl-","Gleiter, Schafer, et al., 1981"
 53397-66-3,Vertical value, C,7.56,PE,"Dibenzo[a,e]cyclooctene,5,6-didehydro-","Wirz, 1976"
 194-32-1,, C,7.13 ¡À 0.04,PE,Cyclohept[fg]acenaphthylene,"Boschi, Clar, et al., 1974"
 886-66-8, , C,7.90 ¡À 0.08,PE,"Benzene, 1,1'-(1,3-butadiyne-1,4-diyl)bis-","Elbel, Lienert, et al., 1981"
 15363-64-1,, C,7.23,EI,Bis(triethylphosphite-p)molybdenum tetracarbonyl,"Innorta, Distefano, et al., 1968"
 19998-74-4,, C,7.23,EI,Bis(triethylphosphite-p-)chromium tetracarbonyl,"Innorta, Distefano, et al., 1968"
 73382-80-6,Vertical value, C,6.7,PE,"Chromium, tricarbonyl(1,3-diethyl-2-imidazolidinylidene)[1,2-ethanediylbis[dimethylphosphine]-p,p']-","Lappert, McCabe, et al., 1980"
 52170-97-5,Vertical value, C,7.64,PE,"Gold,trimethyl(methyldiphenylphosphine)-(sp-4-2)-","Behan, Johnstone, et al., 1978"
 41119-53-3,Vertical value, C,7.39,PE,"Platinum,bis(dimethylphenylphosphine)diiodo-(sp-4-1)-","Behan, Johnstone, et al., 1978"
 81064-33-7,Vertical value, C,7.6,PE,"Iron, ¦Ç","Paquette, Daniels, et al., 1984"
 1274-04-0,, C,6.85,CTS,Bis(propylcyclopentadienyl)iron,"Huttner and Fischer, 1967"
 14314-87-5,, C,8.39 ¡À 0.02,EI,"1,2:3,4-Dicycloheptenobenzene","Meier, Heiss, et al., 1968"
 74035-70-4,Vertical value, C,8.35,PE,"Tin, dibutylbis(diethylphosphinodithioato-s,s')-","Cauletti, Nicotra, et al., 1980"
 84814-06-2, , C,6.8,PE,"1,2-Ethenediamine, N,N'-di-tert-butyl-N,N'-bis(trimethylsilyl)-(Z)-","tom Dieck, Bruder, et al., 1983"
 141968-98-1,Vertical value, C,6.14,PE,"1,3,2-Diazaphosphol-4-ene, 2-(diethylamino)-1,3-dibutyl-4,5-dimethyl-","Zverev, Gryaznova, et al., 1991"
 14720-30-0,LLK, BClF,13. ¡À 1.,EI,Chlorodifluoroborane,"Srivastava and Farber, 1971"
 22095-64-3,, BClFI,10.18 ¡À 0.09,EI,Chlorofluoroiodoborane,"Lappert, Litzow, et al., 1968"
 22395-93-3,, BClF,11. ¡À 1.,EI,Boron monochloride monofluoride,"Srivastava and Farber, 1971"
 2420-87-3,, C,9.8,EI,"4,4'-Biphthalic anhydride","Martinez_deBertorello, Bertorello, et al., 1970"
 67282-66-0,Vertical value; , C,7.07,PE,Bis(9-azabicyclo[3.3.1]non-9-yl-)diazene,"Nelsen and Gannett, 1982"
 34230-58-5, , C,7.2,PE,"Platinum, diethynylbis(triethylphosphine)-","Louwen, Hengelmolen, et al., 1984"
 34230-57-4, , C,7.5,PE,"Palladium, diethynylbis(triethylphosphine)-","Louwen, Hengelmolen, et al., 1984"
 31364-42-8,LBLHLM, C,7.4,PE,"4,7,13,16,21-Pentaoxa-1,10-diazabicyclo[8.8.5]tricosane","Baker, Armen, et al., 1983"
 3345-29-7,, C,8.9,PE,Tricyclo[8.2.2.2,"Heilbronner and Maier, 1974"
 97245-28-8,LBLHLM, C,8.7,PE,"1,4-Di-(p-fluorophenyl)butane-1,2,3,4-tetraone","Gleiter and Dobler, 1985"
 62796-83-2,Vertical value; , C,8.01,PE,Bis(9-azabicyclo[3.3.1]non-9-yl-),"Nelsen, 1984"
 26393-20-4,, C,7.9 ¡À 0.05,PE,"2H-1,5:8,12-Dimethano-3,6a,10-metheno-1,3,5,6a,8,10,12-heptasilaoctalene,dodecahydro-1,3,5,8,10,12-hexamethyl-","Schmidt, Wilkins, et al., 1973"
 792-74-5,, C,9.15 ¡À 0.05,EI,"[1,1'-Biphenyl]-4,4'-dicarboxylic acid, dimethyl ester","Loudon and Mazengo, 1974"
 5807-64-7,, C,8.90 ¡À 0.05,EI,"(1,1'-Biphenyl)-2,2'-dicarboxylic acid, dimethyl ester","Loudon and Mazengo, 1974"
 7579-36-4,Vertical value, C,9.1,PE,"Ethanedioic acid, 1,2-bis(phenylmethyl) ester","Koenig, Snell, et al., 1976"
 495-71-6,Vertical value, C,9.2 ¡À 0.05,PE,"1,4-Butanedione, 1,4-diphenyl-","McAlduff and Bunbury, 1979"
 3442-15-7,, C,8.36,EI,"3-Butene-2-one-4-ol, 1,4-diphenyl-","Orlov, Rashkes, et al., 1988"
 5628-16-0, , C,8.2,PE,"[2.2]-Paracyclophane-2,5-dione","Gleiter, Schafer, et al., 1988"
 6487-28-1,, C,7.44,EI,9-Ethoxyanthracene,"Gillis, Long, et al., 1968"
 13928-09-1,, C,8.90 ¡À 0.05,EI,"Bis(1-(2-thienyl)-4,4,4-trifluoro-1,3-butanedionato)copper","Reichert and Westmore, 1970"
 13928-10-4,, C,8.89 ¡À 0.05,EI,"Bis(1-(2-furyl)-4,4,4-trifluoro-1,3-butanedionato)copper","Reichert and Westmore, 1970"
 32740-61-7,Vertical value, C,7.8,PE,"1,4-Ethanoanthracene-9,10-dione,1,4-dihydro-","Paquette, Bellamy, et al., 1980"
 104713-92-0, , C,8.2,PE,"Syn-7,14-dihydro-1,6:8,13-bismethano[14]annulene-7,14-dione","Gleiter, Dobler, et al., 1987"
 104713-91-9, , C,8.2,PE,"Anti-7,14-dihydro-1,6:8,13-bismethano[14]annulene-7,14-dione","Gleiter, Dobler, et al., 1987"
 61695-73-6,Vertical value, C,7.41,PE,"Anthracene, 9-(epoxyethyl)-","Akiyama, Li, et al., 1979"
 69957-42-2,Vertical value; , C,7.05,PE,"(E)-4-(2-(4-Chlorophenyl)ethenyl)benzenamine, N,N-dimethyl","Cauletti, Furlani, et al., 1985"
 53397-65-2,Vertical value, C,7.76,PE,"Dibenzo[a,e]cyclooctene,5,6,11,12-tetradehydro-","Wirz, 1976"
 954-16-5, , C,8,PE,"Benzophenone, 2,4,6-trimethyl-","Centineo, Fragala, et al., 1978"
 12092-47-6,, C,7.1 ¡À 0.1,EI,"Rhodium 1,5-cyclooctadiene chloride dimer","Davidson, Jones, et al., 1969"
 25401-39-2,LLK, C,8,PE,"6,12-Methano-7H-benzocycloundecen-14-one,","Allan, Heilbronner, et al., 1975"
 10432-22-1,, C,9.05 ¡À 0.10,EI,"Cyclopropanecarbonitrile, 1-(p-nitrophenyl)-2-phenyl-","Lageot, 1971"
 68217-20-9,Vertical value, C,8.6,PE,"2,4-Ethanobiscyclopropa[4,5]cyclopenta[1,2,3-cd:1',2',3'gh]pentalene-5,6-dione,tetradecahydro-(1a¦Á,1b¦Â,2¦Á,2a¦Â,2b¦Á,3a¦Á,3b¦Â,3c¦Â,3d¦Â,4¦Á,4a¦Â,4b¦Á)-","Bartetzko, Gleiter, et al., 1978"
 32339-35-8,, C,8.6 ¡À 0.2,EI,1-(4-Phenoxyphenyl)-1-butanone,"McLafferty and Wachs, 1967"
 53966-05-5,Vertical value, C,6.7,PE,"Chromium, bis(1,3-di(trifluoromethyl)benzene)-","Cabelli, Cowley, et al., 1982"
 13211-01-3,, C,8.4 ¡À 0.2,EI,4'-phenylbutyrophenone,"McLafferty and Wachs, 1967"
 38765-94-5,Vertical value, C,7.33 ¡À 0.03,PE,"Azuleno[2,1,8-ija]azulene,10b,10c-dihydro-","Batich, Heilbronner, et al., 1974"
 612-94-2,, C,7.75,PE,"Naphthalene, 2-phenyl-","Schafer, Schweig, et al., 1973"
 32589-55-2,, C,8.18 ¡À 0.10,EI,"Cyclopropanecarbonitrile, 1-(p-chlorophenyl)-2-phenyl-","Lageot, 1971"
 22360-77-6,LBLHLM, C,7.48,PE,"Naphthalene, 1,8-di-1-propynyl-","Gleiter, Schafer, et al., 1984"
 19227-07-7,Vertical value, C,7.2,PE,"Azulene,2-phenyl-","Dougherty, Lewis, et al., 1980"
 2734-13-6,LBLHLM, C,7.7,PE,"9,10-Ethenoanthracene, 9,10-dihydro-","Haselbach, Neuhaus, et al., 1982"
 518-03-6,, C,6.85 ¡À 0.04,PE,"Cyclohept[fg]acenaphthylene,1,2-dihydro-","Boschi, Clar, et al., 1974"
 23781-82-0,Vertical value, C,7.25,PE,"Azulene,6-phenyl-","Dougherty, Lewis, et al., 1980"
 13141-45-2,LLK, C,7.5,PE,"Benzene, 1,1'-(1-buten-3-yne-1,4-diyl)bis-","Andreocci, Bicev, et al., 1980"
 36230-21-4, , C,7.4,PE,"Biphenylene, 1,8-diethenyl-","Wilcox, Blain, et al., 1986"
 262-89-5,Vertical value, C,7.8,PE,"Dibenzo[a,e]cyclooctene","Wirz, 1976"
 3302-51-0,LLK, C,7.6,PE,"Anthracene, 9,10-bis-methylene-","Allan, Heilbronner, et al., 1976"
 86374-48-3, , C,4.9,PE,"Bis(¦Ç5-cyclopentadienyl)(¦Ì,¦Ç","Chesky and Hall, 1984"
 12702-09-9,Vertical value, C,6.75,PE,Thorocene,"Fragala, Condorelli, et al., 1976"
 11079-26-8,Vertical value; , C,6.15,PE,Bis(¦Ç,"Bruno, Ciliberto, et al., 1982"
 21177-98-0,, C,7.15 ¡À 0.11,EI,"Copper,[N,N'-bis[(2-aminophenyl)methylene-1,2-ethanediaminato(2-)-N,N',N'',N''']-","Gilbert, Taylor, et al., 1973"
 21177-97-9,, C,6.98 ¡À 0.10,EI,"Cobalt,[N,N'-bis[(2-aminophenyl)methylene]-1,2-ethanediaminato(2-)-N,N',N'',N''']-","Gilbert, Taylor, et al., 1973"
 1272-35-1,Vertical value; , C,5.77,PE,Bis-(¦Ç,"Cabelli, Cowley, et al., 1982"
 38695-34-0,LBLHLM, C,6.4,PE,"(E)-4-(2-(4-Fluorophenyl)ethenyl)benzenamine, N,N-dimethyl","Cauletti, Furlani, et al., 1985"
 54196-16-6,Vertical value, C,7.48 ¡À 0.03,PE,"Spiro[furan-3(2H),2'-furo[3,4-d][1,3]oxathiol]-4(5H)-one,4',6'-dihydro-2,2,4',4',5,5,6',6'-octamethyl-","Hohne, Marschner, et al., 1974"