CAS,Comment,Formula,IE,Method,Name,Refer
 7440-65-5,LL, Y,6.217,EVAL,yttrium,"Lide, 1992"
 7439-90-9,LL, Kr,13.99961,EVAL,Krypton,"Lide, 1992"
 10139-47-6,LBLHLM, I,10.3,EI,zinc iodide,"Hilpert, Bencivenni, et al., 1985"
 12175-28-9,LLK, DyO,6.1 ¡À 0.1,EI,Dysprosium monoxide,"Ackermann, Rauh, et al., 1976"
 12401-65-9,, I,7.64,PI,Disodium diiodide,"Berkowitz and Chupka, 1966"
 14447-89-3,RDSH, I,10.4 ¡À 0.4,EI,Tungsten diiodide dioxide,"Gupta, 1969"
 13718-50-8,LBLHLM, BaI,8.6,S,barium iodide,"Emons, Kiessling, et al., 1982"
 12524-20-8,LL, BaI,5.08 ¡À 0.04,EVAL,Barium monoiodide,"Belyaev, Gotkis, et al., 1990"
 11093-56-4,, Cd,7.8,PI,Dicadmium,"Ruppel and Rademann, 1992"
 7790-29-6,LBLHLM, IRb,7.2 ¡À 0.4,EI,rubidium iodide,"Emons, Horlbeck, et al., 1982"
 10476-86-5,LBLHLM, I,9.1,S,strontium iodide,"Emons, Kiessling, et al., 1982"
 32248-43-4,, I,9.0 ¡À 0.2,EI,Samarium diiodide,"Hirayama, Castle, et al., 1974"
 10294-70-9,LBLHLM, I,8.9,PE,tin diiodide,"Novak and Potts, 1984"
 37279-36-0,Vertical value; , I,9.23 ¡À 0.06,PE,Dilithium diiodide,"Potts and Lee, 1979"
 10101-63-0,LLK, I,8.86 ¡À 0.03,PI,lead diiodide,"Berkowitz, 1971"
 10377-58-9,LLK, I,9.57 ¡À 0.03,PI,magnesium iodide,"Berkowitz, 1971"
 7553-56-2,LL, I,9.3074 ¡À 0.0002,TE,Iodine,"Cockett, Donovan, et al., 1996"
 1304-28-5,LL, BaO,6.91,EI,"barium oxide, obtained by calcining witherite","Koitabashi, 1994"
 7790-79-6,, CdF,13.18 ¡À 0.04,PE,cadmium fluoride,"Lee, Law, et al., 1980"
 61349-32-4,, BaO,8.5 ¡À 0.5,EI,Barium trioxotungstate,"Pupp, Yamdagni, et al., 1969"
 7790-80-9,Vertical value, CdI,9.53,PE,cadmium iodide,"Berkowitz, 1974"
 10108-64-2,RDSH, CdCl,11.2 ¡À 0.2,EI,cadmium chloride,"Bloom and Hastie, 1966"
 12323-01-2,, BaMoO,8.5 ¡À 0.5,EI,Barium trioxomolybdate,"Pupp, Yamdagni, et al., 1969"
 7787-37-3,, BaMoO,9.6 ¡À 0.5,EI,barium molybdate,"Pupp, Yamdagni, et al., 1969"
 53809-79-3,, Cd,7.1,PI,Tricadmium,"Ruppel and Rademann, 1992"
 10553-31-8,LBLHLM, BaBr,9.2,S,barium bromide,"Emons, Kiessling, et al., 1982"
 14832-97-4,LL, BaBr,5.04 ¡À 0.04,EVAL,Barium monobromide,"Belyaev, Gotkis, et al., 1990"
 7440-43-9,LL, Cd,8.99367,EVAL,cadmium,"Lide, 1992"
 7440-39-3,LL, Ba,5.2117,EVAL,barium,"Lide, 1992"
 12184-87-1,RDSH, Ge,8.0 ¡À 0.5,EI,Tetragermanium,"Kant and Strauss, 1966"
 39327-80-5,, IO,10.9 ¡À 0.5,EI,Rhenium monoiodide trioxide,"Rabeneck, Rinke, et al., 1973"
 13986-26-0, , I,9.3,PE,zirconium tetraiodide,"Egdell and Orchard, 1978"
 7720-83-4, , I,9.1,PE,titanium tetraiodide,"Egdell and Orchard, 1978"
 7790-47-8,Vertical value, I,9.45,PE,tin tetraiodide,"Burroughs, Evans, et al., 1974"
 14696-98-1,LL, IO,9.66 ¡À 0.10,DER,Iodine oxide,"Monks, Stief, et al., 1995"
 15474-63-2,, DyI,9.6 ¡À 0.2,EI,dysprosium triiodide,"Hirayama and Castle, 1973"
 7440-35-9,LL, Am,5.9738 ¡À 0.0002,LS,americium,"Trautmann, 1994"
 7790-30-9,LBLHLM, ITl,8.47 ¡À 0.02,PE,thallium iodide,"Bancroft and Bristow, 1983"
 10377-51-2,LLK, ILi,7.5,PE,lithium iodide,"Potts and Lee, 1979"
 12065-10-0,LL, GeSe,10.5,EI,germanium selenide,"Balducci, Sacconi, et al., 1991"
 12065-11-1,, GeSe,9.5,EI,germanium diselenide,"Balducci, Sacconi, et al., 1991"
 16110-68-2,, DyF,6.7 ¡À 0.3,EI,Dysprosium difluoride,"Zmbov and Margrave, 1968"
 7429-91-6,LL, Dy,5.93910 ¡À 0.00007,LS,dysprosium,"Xy, Zhou, et al., 1992"
 7681-11-0,LBLHLM, IK,7.5 ¡À 0.4,EI,potassium iodide,"Emons, Horlbeck, et al., 1982"
 13813-43-9,, I,9.2 ¡À 0.2,EI,thulium triiodide,"Hirayama, Castle, et al., 1974"
 13813-40-6,, I,9.5 ¡À 0.2,EI,terbium triiodide,"Hirayama and Castle, 1973"
 13966-94-4,LL, IIn,8.6 ¡À 0.2,EI,indium iodide,"Bencze, Marsel, et al., 1993"
 7681-82-5,LL, INa,7.6,EI,Sodium iodide,"Metallinou, Herstad, et al., 1990"
 7790-44-5,Vertical value, I,9.06,PE,Antimony triiodide,"Nicholson and Rademacher, 1974"
 13455-01-1,Vertical value, I,9.15,PE,phosphorus triiodide,"Berkosky, Ellison, et al., 1973"
 13813-23-5,, I,9.2 ¡À 0.2,EI,praseodymium triiodide,"Hirayama and Castle, 1973"
 13813-24-6,LBLHLM, I,8.7,PE,neodymium triiodide,"Ruscic, Goodman, et al., 1983"
 13813-45-1, , I,9.2,PE,lutetium triiodide,"Ruscic, Goodman, et al., 1983"
 13510-35-5,LL, I,9.3 ¡À 0.2,EI,indium triiodide,"Bencze, Marsel, et al., 1993"
 13813-22-4,LBLHLM, I,8.8,PE,lanthanum triiodide,"Ruscic, Goodman, et al., 1983"
 51682-04-3,, Ge,10.3,PE,Digermanium disulfide,"Balducci, Sacconi, et al., 1991"
 51682-05-4,, Ge,9.6,EI,Digermanium diselenide,"Balducci, Sacconi, et al., 1991"
 20619-16-3,LLK, GeO,11.1,EVAL,germanium oxide,"Huber and Herzberg, 1979"
 51682-06-5,, Ge,8.5,EI,Digermanium ditelluride,"Balducci, Sacconi, et al., 1991"
 12596-05-3,LLK, Ge,7.8,EI,Germanium dimer,"Neckel and Sodeck, 1972"
 26039-39-4,RDSH, Ge,8.7 ¡À 1.0,EI,Digermanium dioxide,"Drowart, Degreve, et al., 1965"
 53262-45-6,, Ge,8.4 ¡À 0.5,EI,Digermanium mononitride,"Muenow, 1974"
 24312-07-0,Vertical value, Ge,8.34,PE,Digermatellurane,"Cradock and Whiteford, 1972"
 18852-54-5,Vertical value, Ge,9.25,PE,Digermathiane,"Cradock and Whiteford, 1972"
 14939-17-4,Vertical value, Ge,10.4,PE,Digermoxane,"Cradock and Whiteford, 1972"
 24254-18-0,Vertical value, Ge,8.84,PE,Digermaselenane,"Cradock and Whiteford, 1972"
 13818-89-8,RDSH, Ge,12.5 ¡À 0.3,EI,Digermane,"Saalfeld and Svec, 1963"
 12025-32-0,LL, GeS,10.5,EI,germanium sulphide,"Balducci, Sacconi, et al., 1991"
 12025-39-7,LL, GeTe,9.7,EI,germanium telluride,"Balducci, Sacconi, et al., 1991"
 13768-63-3,, GeH,10.20 ¡À 0.03,EI,Silylgermane,"Saalfeld and Svec, 1966"
 13450-95-8, , GeI,9.42,PE,germanium tetraiodide,"Burroughs, Evans, et al., 1974"
 13573-06-3,Vertical value, GeH,9.7 ¡À 0.1,PE,"Phosphine, germyl-","Cradock, Ebsworth, et al., 1972"
 12260-55-8,, GeTe,10.8 ¡À 0.5,EI,germanium ditelluride,"Colin and Drowart, 1964"
 21847-06-3,Vertical value, GeH,9.69,PE,Germanethiol,"Cradock and Whiteford, 1972"
 24968-55-6,LL, GeH,¡Ü9.25,PI,Germylene,"Ruscic, Schwarz, et al., 1990"
 7782-65-2,LL, GeH,¡Ü10.53,PI,Germane,"Ruscic, Schwarz, et al., 1990"
 13765-45-2,LL, GeH,¡Ü7.948 ¡À 0.005,PI,Germyl radical,"Ruscic, Schwarz, et al., 1990"
 21138-22-7,Vertical value, GeH,10.01 ¡À 0.02,PE,"Germane, azido-","Cradock, Ebsworth, et al., 1972"
 14694-31-6,Vertical value, GeH,12.6 ¡À 0.1,PE,Diiodogermane,"Cradock and Whiteford, 1971"
 1309-48-4,LL, MgO,8.76 ¡À 0.22,END/DER,magnesium oxide,"Dalleska and Armentrout, 1994"
 53262-44-5,, GeNSi,8.6 ¡À 0.5,EI,Germanium nitride silicide,"Muenow, 1974"
 26039-40-7,, Ge,8.6 ¡À 1.0,EI,Trigermanium trioxide,"Drowart, Degreve, et al., 1965"
 61349-38-0,, Ge,8.6 ¡À 0.3,EI,Trigermanium monosilicide,"Drowart, DeMaria, et al., 1959"
 61349-37-9,RDSH, Ge,8.0 ¡À 0.5,EI,Trigermanium,"Kant and Strauss, 1966"
 14696-99-2,LL, ISr,5.62 ¡À 0.06,EVAL,Strontium monoiodide,"Belyaev, Gotkis, et al., 1990"
 13573-08-5,LBLHLM, GeI,8.9,PE,germanium diiodide,"Jonkers, Van Der Kerk, et al., 1983"
 14691-44-2,RDSH, Ge,9.6 ¡À 0.3,EI,Trigermane,"Saalfeld and Svec, 1963"
 22856-27-5,Vertical value, Ge,9.2 ¡À 0.1,PE,"Germanamine, N,N-digermyl-","Cradock, Ebsworth, et al., 1972"
 15587-38-9,Vertical value, Ge,9.0 ¡À 0.1,PE,"Phosphine, trigermyl-","Cradock, Ebsworth, et al., 1972"
 14362-44-8,LL, I,10.45126,EVAL,Iodine atom,"Lide, 1992"
 12025-36-4,RDSH, GeSi,8.2 ¡À 0.3,EI,Germanium monosilicide,"Drowart, DeMaria, et al., 1959"
 7440-56-4,LL, Ge,7.9,EVAL,germanium,"Lide, 1992"
 7439-95-4,LL, Mg,7.64624,EVAL,magnesium,"Lide, 1992"
 12185-09-0,LLK, P,11.7 ¡À 0.5,EI,Phosphorus dimer,"Balducci, Gigli, et al., 1981"
 11092-25-4,, P,7.7 ¡À 1.0,EI,Rhodium diphosphide,"Cocke, Gingerich, et al., 1975"
 12137-68-7,, P,9.0 ¡À 0.5,EI,Diphosphorus monosilicide,"Smoes, Depiere, et al., 1972"
 10043-92-2,LL, Rn,10.7485,EVAL,radon,"Lide, 1992"
 12040-02-7,RDSH, SnTe,9.1 ¡À 0.5,EI,tin telluride,"Colin and Drowart, 1964"
 7440-31-5,LL, Sn,7.3 ¡À 0.2,EI,tin,"Makarov and Zbezhneva, 1993"
 1314-86-9,Vertical value, P,8.71,PE,Tetraphosphorous triselenide,"Cannington and Whitfield, 1977"
 12281-36-6,LLK, PS,9,EI,Phosphorus monosulfide,"Drowart, Myers, et al., 1973"
 25070-46-6,, P,9.8 ¡À 0.5,EI,Tetraphosphorus nonasulfide,"Muenow and Margrave, 1972"
 12037-82-0,, P,10.1 ¡À 0.5,EI,tetraphosphorus heptasulphide,"Muenow and Margrave, 1972"
 12165-71-8,, P,10.0 ¡À 0.5,EI,Tetraphosphorus hexasulfide,"Muenow and Margrave, 1972"
 12066-62-5,, P,9.6 ¡À 0.5,EI,Tetraphosphorus decasulfide,"Muenow and Margrave, 1972"
 12137-70-1,, P,10.4 ¡À 0.5,EI,Tetraphosphorus pentasulfide,"Muenow and Margrave, 1972"
 39350-99-7,, P,1,EI,Tetraphosphorous tetrasulfide,"Muenow and Margrave, 1972"
 13396-89-9,, P,10.6 ¡À 0.5,EI,Tetraphosphorous sulfide,"Muenow and Margrave, 1972"
 1314-85-8, , P,9.7 ¡À 0.5,EI,tetraphosphorus trisulphide,"Muenow and Margrave, 1972"
 12165-70-7,, P,10.6 ¡À 0.5,EI,Tetraphosphorus disulfide,"Muenow and Margrave, 1972"
 55030-78-9,LLK, P,7.9 ¡À 0.2,PI,Triphosphorus,"Smets, Coppens, et al., 1977"
 37295-14-0,, P,9.8 ¡À 0.5,EI,Tetraphosphorus octasulfide,"Muenow and Margrave, 1972"
 12185-10-3,LLK, P,9.34,PI,"Phosphorus, mol. (P4)","Drowart, Smets, et al., 1978"
 12037-69-3,, PU,7.3 ¡À 0.4,EI,Uranium monophosphide,"Gingerich, 1966"
 51890-39-2,, PTe,7.8 ¡À 1.0,EI,Phosphorus monotelluride,"Drowart, Myers, et al., 1973"
 12509-41-0,LLK, PSe,8.2,EI,Phosphorus monoselenide,"Drowart, Myers, et al., 1973"
 25889-81-0,, PSb,9.9 ¡À 0.3,EI,antimony phosphide,"Kordis and Gingerich, 1972"
 7723-14-0,LL, P,10.48669,EVAL,phosphorus,"Lide, 1992"
 37347-46-9,, PSi,8.4 ¡À 0.5,EI,Disilicon monophosphide,"Smoes, Depiere, et al., 1972"
 12597-60-3,, V,6.3566 ¡À 0.0006,LS,Vanadium dimer,"James, Kowalczyk, et al., 1994"
 12137-64-3,, PSi,9.1 ¡À 0.5,EI,Phosphorus monosilicide,"Smoes, Depiere, et al., 1972"
 133954-09-3,LL, V,5.4978 ¡À 0.0004,TE,Vanadium trimer,"Yang, James, et al., 1994"
 133954-10-6,LL, V,5.6592 ¡À 0.0004,TE,Vanadium tetramer,"Yang, James, et al., 1994"
 7440-62-2,LL, V,6.746 ¡À 0.002,LS,vanadium,"James, Kowalczyk, et al., 1994"
 7440-00-8,LL, Nd,5.525,EVAL,neodymium,"Lide, 1992"
 12597-63-6,, Zn,9.0 ¡À 0.2,IMB,Zinc dimer,"Buckner, Gord, et al., 1988"
 7440-66-6,LL, Zn,9.39405,EVAL,zinc,"Lide, 1992"
 17587-38-1,, S,9.4 ¡À 0.2,EI,Heptasulfur selenide,"Berkowitz and Chupka, 1966"
 21459-04-1,LBLHLM, S,9.0 ¡À 0.2,EI,Heptasulfur,"Rosinger, Grade, et al., 1983"
 66457-73-6,, Na,4.0 ¡À 0.01,PI,Sodium nonamer,"Herrmann, Leutwyler, et al., 1978"
 61349-43-7,, Mo,12.2,EI,Trimolybdenum octaoxide,"Burns, DeMaria, et al., 1960"
 12163-83-6,RDSH, Mo,12.0 ¡À 1.0,EI,Trimolybdenum nonaoxide,"Burns, DeMaria, et al., 1960"
 39297-87-5,LLK, Na,4.05 ¡À 0.05,PI,Sodium pentamer,"Herrmann, Leutwyler, et al., 1978"
 66457-75-8,, Na,3.6 ¡À 0.1,PI,Sodium tridecamer,"Herrmann, Leutwyler, et al., 1978"
 12163-67-6,, MoO,6.2,EI,Strontium trioxomolybdate,"Verhaegen, Colin, et al., 1965"
 13470-04-7,, MoO,9.2,EI,strontium molybdate,"Verhaegen, Colin, et al., 1965"
 1313-27-5,RDSH, MoO,11.8 ¡À 0.5,EI,molybdenum trioxide,"Yamdagni, Pupp, et al., 1970"
 12504-41-5,LL, SSi,10.53 ¡À 0.02,PE,Silicon monosulfide,"Cockett, Dyke, et al., 1989"
 51682-41-8,, MoNa,7.2,EI,Disodium molybdenum tetraoxide,"Johnson, 1975"
 1313-59-3,LBLHLM, Na,5.35,S,disodium oxide,"Butman, Kudin, et al., 1984"
 12163-73-4,, Mo,10,EI,Dimolybdenum pentaoxide,"Burns, DeMaria, et al., 1960"
 12412-19-0,RDSH, Mo,12.1 ¡À 0.6,EI,Dimolybdenum hexaoxide,"Burns, DeMaria, et al., 1960"
 12596-54-2,, Mo,8.0 ¡À 0.1,EI,Molybdenum dimer,"Gupta and Gingerich, 1978"
 25681-79-2,LL, Na,4.8947 ¡À 0.0001,TE,Disodium,"Buhler, 1990"
 13798-23-7,LBLHLM, S,9.2 ¡À 0.2,EI,Hexathiane,"Rosinger, Grade, et al., 1983"
 39297-89-7,LLK, Na,4.04 ¡À 0.05,PI,Sodium heptamer,"Herrmann, Leutwyler, et al., 1978"
 7439-98-7,LL, Mo,7.09243,EVAL,molybdenum,"Lide, 1992"
 10544-50-0,LBLHLM, S,9.3 ¡À 0.2,EI,Cyclic octaatomic sulfur,"Rosinger, Grade, et al., 1983"
 127463-03-0,, Na,3.6 ¡À 0.1,PI,Sodium dodecamer,"Herrmann, Leutwyler, et al., 1978"
 66457-76-9,, Na,3.5 ¡À 0.1,PI,Sodium tetradecamer,"Herrmann, Leutwyler, et al., 1978"
 127463-02-9,, Na,3.9 ¡À 0.1,PI,Sodium decamer,"Herrmann, Leutwyler, et al., 1978"
 37279-42-8,LLK, Na,3.97 ¡À 0.05,PI,Sodium trimer,"Herrmann, Leutwyler, et al., 1978"
 89091-90-7,, Na,3.95 ¡À 0.15,PI,Tetrasodium oxide,"Dao, Peterson, et al., 1984"
 87331-12-2,, Na,3.90 ¡À 0.15,PI,Trisodium oxide,"Dao, Peterson, et al., 1984"
 56730-08-6,, NaOP,7.7 ¡À 0.5,EI,Sodium oxide phosphide,"Gingerich and Miller, 1975"
 12401-86-4,LBLHLM, NaO,7.41,S,sodium oxide,"Butman, Kudin, et al., 1984"
 10361-03-2, , NaO,5.0 ¡À 0.8,EI,Sodium metaphosphate,"Gingerich and Miller, 1975"
 66457-74-7,, Na,3.8 ¡À 0.1,PI,Sodium undecamer,"Herrmann, Leutwyler, et al., 1978"
 39297-86-4,LLK, Na,4.27 ¡À 0.05,PI,Sodium tetramer,"Herrmann, Leutwyler, et al., 1978"
 39297-90-0,LLK, Na,4.10 ¡À 0.05,PI,Sodium octamer,"Herrmann, Leutwyler, et al., 1978"
 39297-88-6,LLK, Na,4.12 ¡À 0.05,PI,Sodium hexamer,"Herrmann, Leutwyler, et al., 1978"
 12300-03-7,, NaSb,6.1,EI,"Antimony, compound with sodium(1:1)","Scheuring and Weil, 1985"
 12333-61-8,, NaRb,4.32 ¡À 0.04,PI,"Rubidium, compound with sodium (1:1)","Kappes and Schumacher, 1985"
 7440-23-5,LL, Na,5.13908,EVAL,sodium,"Lide, 1992"
 1313-99-1,LBLHLM, NiO,9.5 ¡À 0.2,END,nickel monoxide,"Armentrout, Halle, et al., 1982"
 61349-44-8,, S,8.5 ¡À 0.3,EI,Tetraantimony trisulfide,"Sullivan, Prusaczyk, et al., 1970"
 1345-04-6,, S,8.8 ¡À 0.3,EI,antimony sulphide,"Sullivan, Prusaczyk, et al., 1970"
 12597-03-4,LBLHLM, S,10.2 ¡À 0.2,EI,Sulfur trimer,"Rosinger, Grade, et al., 1983"
 12035-20-0,LLK, NdO,5.0 ¡À 0.1,EI,Neodymium monoxide,"Ackermann, Rauh, et al., 1976"
 7440-02-0,LL, Ni,7.6398,EVAL,nickel,"Lide, 1992"
 12401-91-1,, NdO,9.5 ¡À 0.5,EI,Neodymium dioxide,"Staley and Norman, 1969"
 12039-11-1,, SU,6.3,EI,Uranium monosulfide,"Cater, Rauh, et al., 1966"
 12597-10-3,LBLHLM, S,8.8 ¡À 0.2,EI,Sulfur pentamer,"Rosinger, Grade, et al., 1983"
 12596-93-9,RDSH, Pd,7.7 ¡À 0.3,EI,Palladium dimer,"Gingerich, 1967"
 12137-77-8,RDSH, PdSi,8.4 ¡À 0.5,EI,Palladium silicide,"Auwera-Mahieu, Peeters, et al., 1970"
 61349-47-1,, S,8.5 ¡À 0.3,EI,Tetraantimony pentasulfide,"Sullivan, Prusaczyk, et al., 1970"
 7440-05-3,LL, Pd,8.3365 ¡À 0.0001,S,palladium,"Ishikawa, 1993"
 12210-79-6,LLK, SY,7.2 ¡À 0.6,EI,Yttrium monosulfide,"Fries and Cater, 1978"
 19269-85-3,LBLHLM, S,10.1 ¡À 0.2,EI,Tetrasulfur,"Rosinger, Grade, et al., 1983"
 12597-37-4,RDSH, Si,8.0 ¡À 0.3,EI,Silicon timer,"Drowart, DeMaria, et al., 1958"
 61349-45-9,, S,9.3 ¡À 0.3,EI,Triantimony tetrasulfide,"Sullivan, Prusaczyk, et al., 1970"
 12359-48-7,, S,8.6 ¡À 0.3,EI,diantimony tetrasulphide,"Sullivan, Prusaczyk, et al., 1970"
 51682-76-9,, S,9.4 ¡À 0.5,EI,Ditin disulfide,"Colin and Drowart, 1962"
 12166-27-7,LBLHLM, SV,8.4 ¡À 0.3,EI,vanadium sulphide,"Botor and Edwards, 1984"
 107373-21-7,, S,9.6 ¡À 0.3,EI,Triantimony disulfide,"Sullivan, Prusaczyk, et al., 1970"
 7446-34-6,LBLHLM, SSe,9.2 ¡À 0.2,EI,Selenium monosulfide,"Grade, Wienecke, et al., 1983"
 61142-81-2,, S,8.8 ¡À 0.3,EI,Diantimony disulfide,"Sullivan, Prusaczyk, et al., 1970"
 23550-45-0,LL, S,9.4,PE,Sulfur dimer,"Bender, Carnovale, et al., 1988"
 12039-07-5,LLK, STi,7.1 ¡À 0.3,EI,Titanium monosulfide,"Edwards, Franzen, et al., 1971"
 12067-17-3,, SSb,8.4 ¡À 0.3,EI,Antimony monosulfide,"Sullivan, Prusaczyk, et al., 1970"
 1314-95-0,RDSH, SSn,9.7 ¡À 0.5,EI,tin sulphide,"Colin and Drowart, 1962"
 7704-34-9,LL, S,10.36001,EVAL,sulfur,"Lide, 1992"
 12067-53-7,, SiTe,9.2 ¡À 0.5,EI,Silicon monotelluride,"Exsteen, Drowart, et al., 1967"
 7440-21-3,LL, Si,8.15169,EVAL,silicon,"Lide, 1992"
 12597-35-2,LL, Si,7.9,LS,Silicon dimer,"Winstead, Paukstis, et al., 1995"
 7440-15-5,LL, Re,7.88,EVAL,rhenium,"Lide, 1992"
 7440-25-7,LL, Ta,7.89,EVAL,tantalum,"Lide, 1992"
 7440-28-0,LL, Tl,6.10829,EVAL,thallium,"Lide, 1992"
 76939-73-6,LLK, Tl,6.5 ¡À 0.5,EI,Thallium dimer,"Balducci and Piacente, 1980"
 7440-72-4,LL, Fm,6.5,EVAL,Fermium,"Lide, 1992"
 7440-34-8,LL, Ac,5.17,EVAL,Actinium,"Lide, 1992"
 135401-96-6,, Hg,8.12 ¡À 0.08,EI,Mercury dodecamer,"Cabaud, Hoareau, et al., 1980"
 1332-64-5,RDSH, BiO,9.0 ¡À 0.5,EI,Bismuth monoxide,"Uy and Drowart, 1969"
 12323-25-0,, Bi,7.7 ¡À 0.3,EI,Dibismuth diantimonide,"Kohl, Prusaczyk, et al., 1967"
 12187-12-1,LL, Bi,¡Ü7.34,PI,Bismuth dimer,"Yoo, Ruscic, et al., 1993"
 12595-65-2,LLK, Bi,7.3 ¡À 0.5,EI,Bismuth tetramer,"Wagner and Grimley, 1974"
 61349-34-6,, Cs,3.2 ¡À 0.1,PI,Tetracesium,"Foster, Leckenby, et al., 1969"
 37375-12-5, , Ag,9.2,EI,Trisilver triiodide,"Pittermann and Weil, 1980"
 12595-26-5,LL, Ag,6.2,EI,Silver trimer,"Jackschath, Rabin, et al., 1992"
 12444-96-1,LLK, Ag,10.4 ¡À 0.3,EI,Trisilver trichloride,"Bernauer, Busse, et al., 1979"
 11078-32-3,, Ag,10.0 ¡À 0.2,EI,Trisilver dibromide,"Visnapuu and Marek, 1971"
 11078-33-4, , Ag,9.6 ¡À 0.3,EI,Trisilver tribromide,"Bernauer, Busse, et al., 1979"
 64475-46-3,LL, Ag,6.35,EI,Pentasilver,"Jackschath, Rabin, et al., 1992"
 1327-53-3,, As,10.4 ¡À 0.3,EI,diarsenic trioxide,"Brittain, Lau, et al., 1982"
 15942-63-9,, As,12.2 ¡À 0.3,EI,Diarsine,"Saalfeld and Svec, 1963"
 12512-03-7,, As,10.3 ¡À 0.3,EI,Diarsenic diphosphide,"Gutbier, 1961"
 23878-46-8,LBLHLM, As,10.0 ¡À 0.2,EI,Arsenic dimer,"Hirayama, Straw, et al., 1985"
 12249-45-5,, AgCu,7.7823 ¡À 0.0012,TE,"copper, compound with silver (1:1)","James, Lemire, et al., 1994"
 18288-22-7,RDSH, BiH,10.1,EI,Bismuthine,"Saalfeld and Svec, 1963"
 7785-23-1,LLK, AgBr,9.1 ¡À 0.1,EI,silver bromide,"Bernauer and Weil, 1974"
 12709-78-3,, Cl,7.3 ¡À 0.5,EI,Diindium dichloride,"Defoort, Chatillon, et al., 1988"
 7758-95-4,LBLHLM, Cl,10.2,PE,Lead dichloride,"Novak and Potts, 1984"
 10025-68-0,LLK, Cl,9.4,PE,selenium chloride,"Nagy-Felsobuki and Peel, 1980"
 13769-20-5,LBLHLM, Cl,8.91 ¡À 0.05,EI,europium dichloride,"Sapegin, Baluev, et al., 1982"
 12258-98-9,Vertical value; , Cl,10.3,PE,Disodium dichloride,"Potts and Price, 1977"
 14457-70-6,Vertical value; , Cl,9.5 ¡À 0.2,PE,Selenium dichloride,"Nagy-Felsobuki and Peel, 1980"
 10060-11-4,LBLHLM, Cl,10.20 ¡À 0.05,PE,germanium dichloride,"Jonkers, Van Der Kerk, et al., 1982"
 7772-99-8,LBLHLM, Cl,10,PE,Tin(II) chloride,"Novak and Potts, 1984"
 15230-48-5,Vertical value, Cl,11.42 ¡À 0.02,PE,Dichlorogermane,"Cradock and Whiteford, 1971"
 7773-01-5,LLK, Cl,10.8,PE,manganese dichloride,"Lee, Potts, et al., 1980"
 7758-94-3,LLK, Cl,10,PE,iron dichloride,"Lee, Potts, et al., 1980"
 7719-09-7,Vertical value, Cl,11.07,PE,Thionyl chloride,"Bock and Solouki, 1974"
 10025-67-9,LLK, Cl,9.66 ¡À 0.03,PI,Sulfur monochloride,"Kaufel, Vahl, et al., 1981"
 14977-61-8,LLK, Cl,11.6,PE,Chromyl chloride,"Lee and Rabalais, 1975"
 7791-25-5,LLK, Cl,11.4 ¡À 0.5,EI,sulphuryl dichloride,"Sullivan and Beauchamp, 1978"
 10545-99-0,LLK, Cl,9.45 ¡À 0.03,PI,Sulfur dichloride,"Kaufel, Vahl, et al., 1981"
 7646-85-7,RDSH, Cl,11.75 ¡À 0.23,EI,Zinc Chloride,"Kiser, Dillard, et al., 1969"
 13569-32-9,LLK, Cl,10.93 ¡À 0.10,EI,Dichlorosilylene,"Ihle, Wu, et al., 1978"
 10049-05-5,LLK, Cl,9.4,PE,chromium dichloride,"Lee, Potts, et al., 1980"
 7791-21-1,LL, Cl,10.909 ¡À 0.016,PI,Dichlorine monoxide,"Thorn, Stief, et al., 1996"
 13874-77-6,, Cl,9.73 ¡À 0.21,EI,ytterbium dichloride,"Hariharan, Fishel, et al., 1972"
 13637-68-8,LLK, Cl,11.93 ¡À 0.02,PE,Molybdenum dichloride dioxide,"Burroughs, Evans, et al., 1974"
 12345-57-2,LLK, Cl,10.2,PI,Dilithium dichloride,"Berkowitz, Batson, et al., 1980"
 12258-96-7,, Cl,9.6 ¡À 0.03,EI,Dicopper dichloride,"Guido, Gigli, et al., 1972"
 7646-79-9,LLK, Cl,10.4,PE,cobalt dichloride,"Lee, Potts, et al., 1980"
 29871-62-3,LLK, Cl,10.97 ¡À 0.03,EI,"1,3,5,2,4,6-Triazatriphosphorine,2,4-dichloro-2,4,6,6-tetrafluoro-2,2,4,4,6,6-hexahydro-","Clare and Sowerby, 1981"
 7487-94-7,LBLHLM, Cl,11.380 ¡À 0.003,PI,Mercury(II) chloride,"Linn, Brom, et al., 1983"
 3400-09-7,LLK, Cl,9.98 ¡À 0.05,PE,Dichloroamine,"Colbourne, Frost, et al., 1978"
 15364-23-5,, Cl,11.91 ¡À 0.05,PI,Hydrogen chloride dimer,"Tiedemann, Anderson, et al., 1979"
 15230-70-3,, Cl,6.2 ¡À 0.3,EI,Thorium dichloride,"Lau and Hildenbrand, 1990"