CAS,Comment,Formula,IE,Method,Name,Refer
 104642-21-9, , C,7.3,PE,3H-Cyclonona[def]biphenylene,"Wilcox, Blain, et al., 1986"
 25835-57-8,Vertical value, C,7.37 ¡À 0.03,PE,"12H-1,11-Methenobenzo[1,2:4,5]dicycloheptene,11a,12a-dihydro-","Batich, Heilbronner, et al., 1974"
 27490-90-0,, C,7.69 ¡À 0.04,EI,"Silane,1H-inden-1-yldimethylphenyl-","Rakita, Hoffman, et al., 1973"
 24262-07-5,LLK, C,7.6,PE,2-Methyl[2.2]paracyclophane,"Zhong-zhi, Kovak, et al., 1981"
 20637-07-4,, C,8.3 ¡À 0.2,EI,4-(4-Biphenylyl)butanoic acid methyl ester,"Howe, Williams, et al., 1969"
 24254-59-9,, C,7.9 ¡À 0.2,EI,4-(4-Phenoxyphenyl)butanoic acid methyl ester,"Howe, Williams, et al., 1969"
 114145-42-5,Vertical value, C,7.34,PE,"Coumarin, 7-(diethylamino)-4-morpholino-","Redchenko, Safronov, et al., 1992"
 24254-67-9,, C,8.0 ¡À 0.2,EI,"Methyl 3-(1,1'-biphenyl-4-yl)butanoate","Howe, Williams, et al., 1969"
 841-71-4,Vertical value, C,7.5,PE,"Azulene,1,3-diacetyl-4,6,8-trimethyl-","Dougherty, Lewis, et al., 1980"
 75102-19-1,Vertical value, C,7.5,PE,"1,4-Methanoanthracene,1,2,3,4-tetrahydro-9,10-dimethoxy-","Paquette, Bellamy, et al., 1980"
 55027-91-3,Vertical value, C,8.2 ¡À 0.1,PE,"6,13-Methanobenzocyclododecene-15-one,7,8,9,10,11,12-hexahydro-","Allan, Heilbronner, et al., 1975"
 17302-69-1,, C,8.7 ¡À 0.2,EI,1-(4-Benzylphenyl)-1-butanone,"Wachs and McLafferty, 1967"
 101-61-1,LLK, C,6.72,PI,"Benzenamine, 4,4'-methylenebis[N,N-dimethyl-","Pykhtina, Cherednichenko, et al., 1974"
 99643-50-2,Vertical value, C,6.85,PE,"1',3'-Dimethylspiro[cyclopentane-1,2'-(2,3-dihydro-[1H]-perimidine)]","Gleiter and Uschmann, 1986"
 86943-85-3,LBLHLM, C,6.7,PE,"4,5-Bis(dimethylamino)fluorene","Gleiter, Schafer, et al., 1984"
 63378-89-2,, C,7.30 ¡À 0.05,PE,"1H-1,2-Diazepine,hexahydro-1,2-diphenyl-","Rademacher, Bass, et al., 1977"
 58-40-2,LLK, C,8.22 ¡À 0.07,CTS,Promazine,"Poltorakov, Pirnazarova, et al., 1973"
 60-87-7,, C,7.25 ¡À 0.10,CTS,Promethazine,"Fulton and Lyons, 1968"
 40339-96-6,, C,8.44 ¡À 0.05,EI,"Benzene,1,1'-[1,5-pentanediylbis(oxy)]bis-","Schwarz, Petersen, et al., 1977"
 59950-12-8,, C,8.27 ¡À 0.05,EI,"Benzene,[(5-phenoxypentyl)thio]-","Schwarz, Petersen, et al., 1977"
 55027-89-9,Vertical value, C,8. ¡À 0.,PE,"7-H-Benzocyclohepten-7-one,6,8-bis(1-methylethyl)-","Allan, Heilbronner, et al., 1975"
 58211-66-8,, C,7.3 ¡À 0.1,PI,"Methanone,diphenyl-,bis(dimethylamino)deriv.","Potapov and Iskakov, 1971"
 87480-42-0,Vertical value, C,8.36,PE,"1,4:5,8:9,10-Trimethanoanthracene, 1,4,4a,5,8,8a,9,9a,10,10a-decahydro-(1¦Á,4¦Á,4a¦Á,5¦Â,8¦Â,8a¦Á,9¦Â,9a¦Á,10¦Â,10a¦Á)-","Jorgensen, Paddon-Row, et al., 1983"
 83830-72-2,Vertical value, C,8.58,PE,"1,4:5,8:9,10-Trimethanoanthracene, 1,4,4a,5,8,8a,9,9a,10,10a-decahydro-(1¦Á,4¦Á,4a¦Á,5¦Á,8¦Á,8a¦Á,9¦Á,9a¦Â,10¦Á,10a¦Â)-","Jorgensen, Paddon-Row, et al., 1983"
 50415-43-5,Vertical value, C,8.24,PE,"1,4:5,8:9,10-Trimethanoanthracene, 1,4,4a,5,8,8a,9,9a,10,10a-decahydro-(1¦Á,4¦Á,4a¦Á,5¦Á,8¦Á,8a¦Á,9¦Â,9a¦Á,10¦Â,10a¦Á)-","Jorgensen, Paddon-Row, et al., 1983"
 104453-33-0, , C,6.2,PE,"Titanium, ¦Ç","Andrea, Terpstra, et al., 1986"
 104453-34-1, , C,4.4,S,"Zirconium, ¦Ç","Blenkers, Bruin, et al., 1985"
 49764-17-2,Vertical value, C,7.82 ¡À 0.015,PE,Tricylo[3.3.1.1,"Klessinger, Asmus, et al., 1975"
 104453-35-2, , C,4.07,S,"Hafnium, ¦Ç","Blenkers, Bruin, et al., 1985"
 87480-44-2,Vertical value, C,8.51,PE,"1,4:5,8:9,10-Trimethanoanthracene, 1,2,3,4,4a,5,8,8a,9,9a,10,10a-dodecahydro-(1¦Á,4¦Á,4a¦Á,5¦Á,8¦Á,8a¦Á,9¦Â,9a¦Á,10¦Â,10a¦Á)-","Jorgensen, Paddon-Row, et al., 1983"
 87480-43-1,Vertical value, C,8.47,PE,"1,4:5,8:9,10-Trimethanoanthracene, 1,2,3,4,4a,5,8,8a,9,9a,10,10a-dodecahydro-(1¦Á,4¦Á,4a¦Â,5¦Â,8¦Â,8a¦Â,9¦Á,9a¦Â,10¦Á,10a¦Â)-","Jorgensen, Paddon-Row, et al., 1983"
 67081-97-4,, C,7.9 ¡À 0.1,EI,"Benzene,1-methoxy-3-[3-(4-methoxy-d3-phenyl)propyl]-","Kuck and Grutzmacher, 1978"
 55728-14-8,, C,8.9 ¡À 0.1,PI,"Glycine,N-[N-(1-oxodecyl)-L-leucyl]-methyl ester","Orlov, Varshavsky, et al., 1974"
 32589-51-8,, C,6.80 ¡À 0.07,EI,"Cyclopropanecarbonitrile, 2-[p-(dimethylamino)phenyl]-1-p-tolyl-","Lageot, 1971"
 52326-84-8,Vertical value, C,8.2,PE,"Bicyclo[4.1.0]hepta-1,3,5-triene, 7,7-difluoro-2,5-diphenyl-","Lecoultre, Heilbronner, et al., 1988"
 140852-73-9,Vertical value, C,6.65,PE,"Titanium, methyl [1,2,3,4-)-1,2,3,4-tetramethyl-2,4-cyclopentadien-1-yl](6-1,2,3-trimethyl-5-methylene-1,3-cyclopentadiene)-","Vondrak, Mach, et al., 1992"
 37912-85-9,Vertical value, C,6.7,PE,"Phosphorin,2,4,6-tris(1,1-dimethylethyl)-1,1-dihydro-1,1-dimethoxy-","Schweig, Schafer, et al., 1972"
 50592-48-8,, C,8.7 ¡À 0.4,EI,"Cyclohexene,1-methyl-4,4-diphenyl-","Fortin and Rousseau, 1973"
 75102-21-5,Vertical value, C,7.4,PE,"1,4-Ethanoanthracene,1,4-dihydro-9,10-dimethoxy-2-methyl-","Paquette, Bellamy, et al., 1980"
 50592-49-9,, C,8.8 ¡À 0.2,EI,"Cyclohexanone,2-methyl-5,5-diphenyl-","Fortin, Forest, et al., 1973"
 113035-26-0,Vertical value, C,6.6,PE,"2-Azapentalene, 1,3-bis(dimethylamino)-4,6-di-tert-butyl-","Eckert-Maksic, Gleiter, et al., 1988"
 5086-79-3,, C,9.5 ¡À 0.1,EI,"1,3-Bis(2-phenyl-1,3,4-oxadiazol-5-yl)perfluoropropane","Cotter, Soc. 1965"
 50592-47-7,, C,9.2 ¡À 0.2,EI,"Cyclohexanol,1-methyl-4,4-diphenyl-","Fortin, Forest, et al., 1973"
 17986-01-5,Vertical value, C,7.54,PE,"Methanamine,N-(triphenylphosphoranylidene)-","Starzewski and Dieck, 1979"
 55027-92-4,Vertical value, C,7.83 ¡À 0.03,PE,"8H-Cyclohepta[b]naphthalen-8-one,7,9-diethyl-","Allan, Heilbronner, et al., 1975"
 2541-69-7,RDSH, C,7.29,CTS,"Benz[a]anthracene, 7-methyl-","Birks and Stifkin, 1961"
 26154-63-2,, C,7.3,EI,4-Toluenesulfonic acid 4-azulylethyl ester,"Cooks, Wolfe, et al., 1970"
 316-14-3,LLK, C,7.33 ¡À 0.03,PE,"Benz[a]anthracene, 6-methyl-","Akiyama, Harvey, et al., 1981"
 3351-31-3,LLK, C,7.46 ¡À 0.03,PE,"Chrysene, 3-methyl-","Shahbaz, Akiyama, et al., 1981"
 3351-30-2,LLK, C,7.44 ¡À 0.03,PE,"Chrysene, 4-methyl-","Shahbaz, Akiyama, et al., 1981"
 3697-24-3,LLK, C,7.40 ¡À 0.03,PE,"Chrysene, 5-methyl-","Shahbaz, Akiyama, et al., 1981"
 1705-85-7,LLK, C,7.44 ¡À 0.03,PE,"Chrysene, 6-methyl-","Shahbaz, Akiyama, et al., 1981"
 2381-31-9,RDSH, C,7.39,CTS,"Benz[a]anthracene, 8-methyl-","Birks and Stifkin, 1961"
 3351-28-8,LLK, C,7.46 ¡À 0.03,PE,"Chrysene, 1-methyl-","Shahbaz, Akiyama, et al., 1981"
 3351-32-4,LLK, C,7.49 ¡À 0.03,PE,2-Methylchrysene,"Shahbaz, Akiyama, et al., 1981"
 2498-75-1,RDSH, C,7.43,CTS,"Benz[a]anthracene, 3-methyl-","Birks and Stifkin, 1961"
 2422-79-9,LLK, C,7.27 ¡À 0.03,PE,"Benz[a]anthracene, 12-methyl-","Akiyama, Harvey, et al., 1981"
 2498-76-2,RDSH, C,7.39,CTS,"Benz[a]anthracene, 2-methyl-","Birks and Stifkin, 1961"
 2381-16-0,RDSH, C,7.37,CTS,"Benz[a]anthracene, 9-methyl-","Birks and Stifkin, 1961"
 2319-96-2,, C,7.43,CTS,"Benz[a]anthracene, 5-methyl-","Birks and Stifkin, 1961"
 52750-12-6,Vertical value, C,7.85,PE,"Bicyclo[4.1.0]hepta-1,3,5-triene, 2,5-diphenyl-","Lecoultre, Heilbronner, et al., 1988"
 2381-15-9,RDSH, C,7.37,CTS,"Benz[a]anthracene, 10-methyl-","Birks and Stifkin, 1961"
 316-49-4,LLK, C,7.30 ¡À 0.03,PE,"Benz[a]anthracene, 4-methyl-","Akiyama, Harvey, et al., 1981"
 51231-85-7,, C,6.80 ¡À 0.13,EI,"Molybdenum,bis(¦Ç","Harris and Spalding, 1980"
 6111-78-0,Vertical value, C,7.30 ¡À 0.03,PE,"Benz[a]anthracene, 11-methyl-","Akiyama, Harvey, et al., 1981"
 86409-35-0, , C,4.9,PE,"bis(¦Ç5-Cyclopentadienyl)(¦Ì,¦Ç6-mesitylene)divanadium","Chesky and Hall, 1984"
 115560-11-7, , C,6.4,PE,"Ruthenium, ¦Ç","Crossley, Green, et al., 1989"
 32812-65-0,, C,8.8 ¡À 0.2,EI,"Benzene,1,1'-(4-methylcyclohexylidene)bis-","Fortin, Forest, et al., 1973"
 80548-38-5,LLK, C,7.3,PE,Tricyclo[8.2.2.2,"Zhong-zhi, Kovak, et al., 1981"
 3576-47-4,, C,7.85 ¡À 0.07,CTS,"Phenothiazine, 10-(¦Â-diethylaminopropionyl)-","Poltorakov, Pirnazarova, et al., 1973"
 28493-54-1,Vertical value, C,7.9,PE,"Stannane,tributyl(phenylmethyl)-","Schweig, Weidner, et al., 1974"
 125329-74-0,Vertical value, C,6.64 ¡À 0.02,PE,"Molybdenum, [1,4-butanediolato(2-)-o,o'-)oxo[tris(3,5-dimethyl-1H-pyrazolato-N')hydroborato(1-)-N","Chang, Rai-Chaudhuri, et al., 1990"
 108079-26-1, , C,7.8,PE,"5,12,6,11-[1,3]Propanediylidenedibenzo[a,e]cyclooctene, 5,6,11,12-tetrahydro","Fessner, Sedelmeier, et al., 1987"
 99643-44-4, , C,6.6,PE,"1,3'-Dimethylspiro[1,3-benzodithiole-2,2'-(2,3-dihydro-[1H]-perimidine)]","Gleiter and Uschmann, 1986"
 519-73-3,LLK, C,8.34 ¡À 0.03,PI,Triphenylmethane,"Rodionov, Potapov, et al., 1973"
 22597-80-4,, C,7.22,EI,Bis[triisopropylphosphite(p)]cobalt carbonyl nitrosyl,"Innorta, Distefano, et al., 1968"
 87842-94-2,LBLHLM, C,7.48,PE,"Naphtho[1,8',8:c,d]cyclododeca-1,6-diyne","Gleiter, Schafer, et al., 1984"
 50-49-7,LLK, C,8.21 ¡À 0.07,CTS,Imipramine,"Poltorakov, Pirnazarova, et al., 1973"
 127517-59-3,Vertical value, C,6.58 ¡À 0.02,PE,"Molybdenum, diethoxy-oxo[tris(3,5-dimethyl-1H-pyrazolato-N')hydroborato(1-)-N","Chang, Rai-Chaudhuri, et al., 1990"
 2400-01-3,, C,8.9 ¡À 0.1,EI,"Benzene, (1-hexylheptyl)-","King, 1965"
 602-56-2,Vertical value, C,7.75,PE,"Acridine, 9-phenyl-","Jongsma, Vermeer, et al., 1975"
 1952-62-1,, C,7.13 ¡À 0.07,CTS,"Acetamide,2-(diethylamino)-N-(10-methyl-10H-phenothiazin-3-yl)-","Poltorakov, Pirnazarova, et al., 1973"
 5472-23-1,, C,7.46 ¡À 0.02,PI,9-Hydro-9-oxo-10-phenylacridine,"Potapov, Filyugina, et al., 1968"
 64000-98-2,Vertical value, C,7.54,PE,16-Azatricyclo[9.2.2.1,"Reingold, Schmidt, et al., 1979"
 2720-93-6,Vertical value, C,8.2,PE,"Phenanthridine,6-phenyl-","Schafer, Schweig, et al., 1974"
 20995-81-7,Vertical value, C,7.25,PE,"Acridophosphine,10-phenyl-","Jongsma, Vermeer, et al., 1975"
 52731-68-7,Vertical value, C,7.6,PE,"Phosphanthridine,6-phenyl-","Schafer, Schweig, et al., 1974"
 70389-15-0,Vertical value, C,7.57,PE,16-Azatricyclo[9.2.2.1,"Reingold, Schmidt, et al., 1979"
 28660-45-9,Vertical value, C,7.05,PE,"Acridarsine,10-phenyl-","Schafer, Schweig, et al., 1972"
 62-67-9,Vertical value, C,8.15,PE,Nalorphine,"Popkie, Koski, et al., 1976"
 72-69-5,, C,8.39 ¡À 0.11,CTS,Nortriptyline,"Fulton and Lyons, 1968"
 800-22-6,, C,7.87 ¡À 0.07,CTS,Chloracyzine,"Poltorakov, Pirnazarova, et al., 1973"
 3487-44-3,Vertical value, C,6.62,PE,"Phosphorane, methylenetriphenyl-","Starzewski and Bock, 1976"
 2224-32-0,Vertical value, C,6.91,PE,Cyclopentadienylidenetriphenylphosphorus,"Starzewski and Bock, 1976"
 15444-65-2, , C,7.80 ¡À 0.05,EI,"Tungsten, pentacarbonyl(triphenylphosphine)-, (OC-6-22)-","Paetzold and Abd-el-Mottaleb, 1975"
 29743-03-1,, C,7.90 ¡À 0.05,EI,"Tungsten, pentacarbonyl(triphenylstibine)-(oc-6-22)-","Paetzold and Abd-el-Mottaleb, 1975"
 15614-21-8,, C,7.98 ¡À 0.09,EI,"Rhenium,pentacarbonyl(triphenylstannyl)-","Harris and Spalding, 1980"
 23306-41-4,Vertical value, C,7.9,PE,"Tungsten,pentacarbonyl(triphenylphosphite-p)-","Daamen, Oskam, et al., 1980"
 55728-12-6,, C,8.4 ¡À 0.1,PI,"L-Alanine,N-[N-[N-(1-oxodecyl)-L-alanyl]-L-leucyl]-methyl ester","Orlov, Varshavsky, et al., 1974"
 20686-45-7,, C,9.08 ¡À 0.07,CTS,"1-Propanone, 1-(10-(3-(4-methyl-1-piperazinyl)propyl)phenothiazin-2-yl)-","Poltorakov, Pirnazarova, et al., 1973"
 15603-94-8,Vertical value, C,7.44,PE,"Molybdenum,pentacarbonyl(tricyclohexylphosphine)-(oc-6-22)-","Daamen, Oskam, et al., 1980"
 15603-93-7,Vertical value, C,7.24,PE,"Chromium,pentacarbonyl(tricyclohexylphosphine)-","Daamen, Oskam, et al., 1980"
 18461-39-7,Vertical value, C,7.67,PE,"Chromium,pentacarbonyl(triphenylphosphite-p)-","Daamen, Oskam, et al., 1980"
 14917-12-5, , C,7.40 ¡À 0.05,EI,"Chromium, pentacarbonyl(triphenylphosphine)-","Paetzold and Abd-el-Mottaleb, 1975"
 18474-91-4,Vertical value, C,7.29,PE,"Tungsten,pentacarbonyl(tricyclohexylphosphine)-","Daamen, Oskam, et al., 1980"
 14405-84-6,, C,7.94 ¡À 0.11,EI,"Manganese,pentacarbonyl(triphenylstannyl)-","Harris and Spalding, 1980"
 13497-36-4,Vertical value, C,7.8,PE,"Phosphorin, 2,4,6-triphenyl-","Schafer, Schweig, et al., 1976"
 29743-02-0, , C,7.90 ¡À 0.05,PE,"Tungsten,pentacarbonyl(triphenylarsine)-","Paetzold and Abd-el-Mottaleb, 1975"
 40425-71-6,Vertical value, C,7.05,PE,"Phosphorin,1,1-dichloro-1,1-dihydro-2,4,6-triphenyl-","Schafer, Schweig, et al., 1976"
 40425-79-4,Vertical value, C,7.15,PE,"Phosphorin,1,1-difluoro-1,1-dihydro-2,4,6-triphenyl-","Schafer, Schweig, et al., 1976"
 14971-42-7,, C,7.70 ¡À 0.05,EI,"Molybdenum,pentacarbonyl(triphenylphosphine)-","Paetzold and Abd-el-Mottaleb, 1975"
 19212-22-7,, C,7.80 ¡À 0.05,EI,"Molybdenum,pentacarbonyl(triphenylarsine)-","Paetzold and Abd-el-Mottaleb, 1975"
 19212-21-6,, C,7.90 ¡À 0.05,EI,"Molybdenum,pentacarbonyl(triphenylstibine)-","Paetzold and Abd-el-Mottaleb, 1975"
 61164-97-4,Vertical value, C,6.9,PE,"Thieno[3,4-c]isothiazole-5-s(iv),3,4,6-triphenyl-","Gotthardt, Reiter, et al., 1979"
 25401-43-8,Vertical value; , C,8.15 ¡À 0.03,PE,"6,19-Methanobenzocyclooctadecen-21-one,","Allan, Heilbronner, et al., 1975"
 78823-28-6,LLK, C,7.6,PE,"Methanone, (2-methylphenyl)[2,4,6-tris(methylethyl)phenyl]-","Centineo, Fragala, et al., 1978"
 20743-99-1,Vertical value, C,7.72 ¡À 0.015,PE,"Benzene,1-hexadecyloxy)-4-methoxy-","Klessinger, Asmus, et al., 1975"
 111473-17-7,, C,7.79,EI,"Propane-1,3-dione, 1,3-diphenyl-2-(4-methoxybenzoyl)-","Orlov, Rashkes, et al., 1988"
 50786-03-3,, C,8.9 ¡À 0.2,EI,"2(3H)-Naphthalenone,4,4a,5,6,7,8-hexahydro-4a-methyl-7,7-diphenyl-","Fortin, Forest, et al., 1973"
 84-06-0,, C,7.31 ¡À 0.14,CTS,Thiopropazate,"Fulton and Lyons, 1968"
 50592-50-2,, C,8.9 ¡À 0.2,EI,"Naphthalene,1,2,3,4,4a,5,6,7-octahydro-4a-methyl-2,2-diphenyl-","Fortin, Forest, et al., 1973"
 77897-19-9,Vertical value; , C,7.40 ¡À 0.05,PE,Tricyclo[8.2.2.2,"Zhong-zhi, Kovak, et al., 1981"
 71251-98-4, , C,6.1,PE,"Cobalt, ¦Ç","Green, Powell, et al., 1984"
 40438-63-9,Vertical value, C,7.88,PE,"Phosphine,dicyclohexyl(4-methoxyphenyl)-","Goetz, Marschner, et al., 1976"
 6111-63-3,, C,10.375,PI,Propyne-d4,"Person and Nicole, 1970"
 666-52-4,LLK, C,9.695 ¡À 0.006,PI,Acetone-D6,"Trott, Blais, et al., 1978"
 23868-54-4,, C,9.4 ¡À 0.2,PI,"1-Isopropenyl-1,7-dicarbadodecaborane","Orlov, Pustobaev, et al., 1988"
 17525-52-9,, C,9.6 ¡À 0.2,PI,"1-Isopropenyl-1,2-dicarbadodecaborane","Orlov, Pustobaev, et al., 1988"
 13025-73-5,, C,10.62 ¡À 0.05,EI,"Propyne-3,3,3-d1","Collin and Lossing, 1958"
 67-51-6,LL, C,8.75 ¡À 0.03,PE,"3,5-Dimethylpyrazole","Lichtenberger, Copenhaver, et al., 1988"
 2721-32-6,LLK, C,8.45 ¡À 0.04,PE,"2,3-Diazabicyclo[2.2.1]-hept-2-ene","Boyd, Bunzli, et al., 1973"
 1739-84-0,Vertical value; , C,8.38,PE,"1H-Imidazole, 1,2-dimethyl-","Ramsey, 1979"
 87110-36-9, , C,8,PE,"1H-Pyrazole, 1-methyl-5-(methylthio)","Guimon, Pfister-Guillouzo, et al., 1983"
 55833-07-3,LBLHLM, C,7.1,PE,"3H-Pyrazole-3-thione,1,2-dihydro-1,2-dimethyl-","Guimon, Pfister-Guillouzo, et al., 1983"
 87110-35-8, , C,7.3,PE,"1H-Pyrazole, 1-methyl-3-(methylthio)","Guimon, Pfister-Guillouzo, et al., 1983"
 6596-81-2,Vertical value, C,7.27 ¡À 0.03,PE,"1,3-Dimethylimidazole-2(3H)-thione","Guimon, Pfister-Guillouzo, et al., 1974"
 24039-08-5, , C,9,PE,"2,4-Imidazolidinedione, 1,3-dimethyl-","Vondrak and Cauletti, 1988"
 22509-00-8,LLK, C,9.2,PE,"2,3-Diazabicyclo[2.2.1]hept-2-ene,2-oxide","Bunzli, Olsen, et al., 1977"
 2749-59-9,Vertical value, C,8.65 ¡À 0.05,PE,"3H-Pyrazol-3-one, 2,4-dihydro-2,5-dimethyl-","Vondrak, Bastl, et al., 1988"
 10159-46-3,, C,8.55 ¡À 0.05,EI,"Phosphoric triamide, pentamethyl-","Baldwin, Loudon, et al., 1977"
 57877-86-8,Vertical value, C,8.25,PE,"1,3,4,2,5-Thiadiazadiborolidine,2,5-dimethyl-3-(trimethylsilyl)-","Kroner, Nolle, et al., 1975"
 60491-95-4,Vertical value, C,9.45,PE,"3-bromo-4,4-dimethyloxazolidin-2-one","Gerson, Worley, et al., 1978"
 39130-85-3,, C,10.17 ¡À 0.02,PE,"1-Propyne, 3,3,3-trifluoro-1-iodo-","Bieri, Heilbronner, et al., 1979"
 51422-73-2,, C,10.25 ¡À 0.02,PE,"Cyclopentane, 1-bromo-2-fluoro-, trans-","Botter, Menes, et al., 1973"
 51422-72-1,, C,10.10 ¡À 0.02,PE,"Cyclopentane, 1-bromo-2-fluoro-, cis-","Botter, Menes, et al., 1973"
 14376-82-0,, C,10.23 ¡À 0.02,PE,"Cyclopentane, 1-bromo-2-chloro-, trans-","Botter, Menes, et al., 1973"
 37722-39-7,, C,10.13 ¡À 0.02,PE,"Cyclopentane, 1-bromo-2-chloro-, cis-","Botter, Menes, et al., 1973"
 433-43-2,RDSH, C,10.6 ¡À 0.1,EI,"2-Propenenitrile, 2,3,3-trifluoro-","Chelobov, Dubov, et al., 1969"
 10230-26-9,LLK, C,10.08 ¡À 0.02,PE,"Cyclopentane, 1,2-dibromo,trans-","Botter, Menes, et al., 1973"
 33547-17-0,LLK, C,10.02 ¡À 0.02,PE,"Cyclopentane, 1,2-dibromo-cis-","Botter, Menes, et al., 1973"
 675-14-9,LLK, C,11.3,PE,"1,3,5-Triazine, 2,4,6-trifluoro-","Asbrink, Svensson, et al., 1981"
 65094-18-0, , C,11.1,PE,Tris(trifluoromethyl)bromogermane,"Drake, Gorzelska, et al., 1982"
 1517-52-8,, C,9.76 ¡À 0.01,PI,Propene-d6,"Person and Nicole, 1970"
 819-01-2,, C,10.81 ¡À 0.02,PE,"1-Propyne, 1-bromo-3,3,3-trifluoro-","Bieri, Heilbronner, et al., 1979"
 2875-94-7,, C,11.4,EI,Propane-d8,"Lifshitz and Shapiro, 1966"
 13145-46-5,Vertical value, C,8.26,PE,"1,4,6,9-Tetrathiaspiro[4.4]nonane","Kobayashi, Gleiter, et al., 1977"
 42855-50-5,Vertical value, C,8.38,PE,"2,5-Dihydrothiophene, 3-methyl-","Kuhn, Klessinger, et al., 1987"
 100182-47-6,Vertical value, C,7.77,PE,"4,5-Dihydrothiophene, 3-methyl-","Kuhn, Klessinger, et al., 1987"
 76-19-7,, C,13.38,PE,Perfluoropropane,"Dewar and Worley, 1969"
 598-23-2,LLK, C,9.97,EI,"1-Butyne, 3-methyl-","Holmes, Fingas, et al., 1981"
 2004-70-8,LLK, C,8.59 ¡À 0.02,PE,"1,3-Pentadiene, (E)-","Masclet, Mouvier, et al., 1981"
 78-79-5,LLK, C,8.85 ¡À 0.02,PE,Isoprene,"Bieri, Burger, et al., 1977"
 35682-28-1,Vertical value, C,8.5,PE,"Germane,2,4-cyclopentadien-1-yl-","Cradock, Ebsworth, et al., 1975"
 142-29-0,LLK, C,9.18,PE,Cyclopentene,"Kimura, Katsumata, et al., 1981"
 1574-41-0,LLK, C,8.64,PE,"1,3-Pentadiene, (Z)-","Rucker, Lang, et al., 1980"
 591-93-5,LLK, C,9.62 ¡À 0.02,PE,"1,4-Pentadiene","Bieri, Burger, et al., 1977"
 123-54-6,LLK, C,8.85 ¡À 0.05,PE,Acetylacetone,"Houk, Davis, et al., 1973"
 105-45-3,, C,9.815,EI,Methyl acetoacetate,"Martigny, 1990"
 1193-10-8,Vertical value, C,9.84,PE,"2,5-Dihydro-3-methyl-thiophene 1,1-dioxide","Kuhn, Klessinger, et al., 1987"
 80-62-6,LLK, C,9.7,PE,Methyl methacrylate,"Van Dam and Oskam, 1978"
 872-94-6,Vertical value, C,9.86,PE,"4,5-Dihydrothiophene, 1,1-dioxide, 3-methyl-","Kuhn, Klessinger, et al., 1987"
 16841-46-6,Vertical value, C,10.03,PE,"Thiacyclohex-3-ene, 1,1-dioxide","Kuhn, Klessinger, et al., 1987"
 16841-51-3,Vertical value, C,10.3,PE,"Thiacyclohex-2-ene, 1,1-dioxide","Kuhn, Klessinger, et al., 1987"
 280-21-7,Vertical value, C,9.63 ¡À 0.03,PE,"6,7,8-Trioxabicyclo[3.2.1]octane","Brown and Marcinko, 1978"
 4525-25-1,, C,9.17,EI,(Z)-3-Hydroxy-2-butenoate,"Martigny, 1990"
 140-88-5,, C,¡Ü10.3,PE,"2-Propenoic acid, ethyl ester","Morizur, Mercier, et al., 1982"
 541-47-9,LLK, C,9.63,PE,"2-Butenoic acid, 3-methyl-","Holmes, Terlouw, et al., 1979"
 591-87-7,LLK, C,9.8,PE,Allyl acetate,"Van Dam and Oskam, 1978"
 3721-95-7,LLK, C,10.35,PE,Cyclobutylcarboxylic acid,"Holmes, Terlouw, et al., 1979"
 13201-46-2,LLK, C,9.5,PE,"2-Butenoic acid, 2-methyl-","Holmes, Terlouw, et al., 1979"
 3586-58-1,LLK, C,10.06,PE,2-Ethylpropenoic acid,"Holmes, Terlouw, et al., 1979"
 1522-20-9,Vertical value, C,9.08 ¡À 0.01,PE,"3-Penten-2-one, 4-hydroxy-","Hush, Livett, et al., 1987"
 5417-32-3,LBLHLM, C,9,PE,"1,3-Dioxepin, 4,7-dihydro-","Zverev, Villem, et al., 1982"
 626-98-2,LLK, C,10.14,PE,2-Pentenoic acid,"Holmes, Terlouw, et al., 1979"
 1185-34-8,Vertical value, C,9.8,PE,"Propanedial, dimethyl-","Schweig, Vermeer, et al., 1974"
 1617-32-9,LLK, C,9.41,PE,(E)-pent-3-en-1-oic acid,"Holmes, Terlouw, et al., 1979"
 279-35-6,Vertical value; , C,8.96,PE,"2,3-Dioxabicyclo[2.2.1]heptane","Gleiter, Dobler, et al., 1984"
 53774-20-2,, C,9.52,PE,3-Methyl-3-butenoic acid,"Holmes, Terlouw, et al., 1979"
 1072-72-6,LLK, C,8.90 ¡À 0.05,PE,"4H-Thiopyran-4-one, tetrahydro-","Colonna, Distefano, et al., 1980"
 73059-87-7,LLK, C,8.4,PE,(Z)-4-Hydroxy-3-penten-2-thione,"Jorgensen, Carlsen, et al., 1981"
 65581-04-6,Vertical value; , C,8.73,PE,(Z)-4-Mercapto-3-penten-2-one,"Jorgensen, Carlsen, et al., 1981"