CAS,Comment,Formula,IE,Method,Name,Refer
 14523-98-9,Vertical value, C,11.2,PE,Formic acid dimer,"Kimura, Katsumata, et al., 1981"
 64-19-7,LBLHLM, C,10.63,PI,Acetic acid,"Traeger, McLouglin, et al., 1982"
 21511-46-6,LBLHLM, C,10.6,PE,"1,3-Dithietan-1,1,3,3-tetraoxide","Block, Corey, et al., 1982"
 1782-89-4,LLK, C,10.2,PE,"Thiirane, 1,1-dioxide-","Solouki, Bock, et al., 1975"
 75-37-6,LBLHLM, C,11.865 ¡À 0.030,PI,"Ethane, 1,1-difluoro-","Heinis, Bar, et al., 1985"
 593-96-4,LLK, C,10.37,PE,1-Bromo-1-chloroethane,"Berman, Anicich, et al., 1979"
 107-04-0,LLK, C,10.55,PI,"Ethane, 1-bromo-2-chloro-","Berman, Anicich, et al., 1979"
 60743-08-0,LBLHLM, C,8.6,PE,"1,3-Dithietan-1,3-dioxide","Block, Corey, et al., 1982"
 60743-07-9,LBLHLM, C,9.4,PE,"1,3-Dithietan-1,1-dioxide","Block, Corey, et al., 1982"
 624-76-0,LLK, C,9.62,PE,"Ethanol, 2-iodo-","Baker, Betteridge, et al., 1971"
 106-93-4,LLK, C,10.37,PI,"Ethane, 1,2-dibromo-","Berman, Anicich, et al., 1979"
 557-91-5,LLK, C,10.17,PE,"Ethane, 1,1-dibromo-","Berman, Anicich, et al., 1979"
 762-49-2,Vertical value; , C,10.57,PE,"Ethane, 1-bromo-2-fluoro-","Gounelle, Menard, et al., 1975"
 1571-60-4,LBLHLM, C,9.62 ¡À 0.04,EI,"Ethen-1,2-diol","Turecek and Havlas, 1986"
 107-31-3,LL, C,10.835,TE,Methyl formate,"Waterstradt, Jung, et al., 1994"
 61233-19-0,, C,10.51 ¡À 0.03,PI,Formaldehyde dimer,"Vilesov and Terenin, 1957"
 71849-87-1,Vertical value, C,9.38,PE,"1,6-Dicarbahexaborane(6),2,4-dichloro-","Beltram and Fehlner, 1979"
 71997-81-4,Vertical value, C,8.86,PE,"1,6-Dicarbahexaborane(6),2,4-diiodo-","Beltram and Fehlner, 1979"
 753-90-2,LBLHLM, C,9.97,PE,"2,2,2-Trifluoroethylamine","Molder, Pikver, et al., 1983"
 72028-13-8,Vertical value, C,9.17,PE,"1,6-Dicarbahexaborane(6), 2,4-dibromo-","Beltram and Fehlner, 1979"
 52067-19-3,, C,7.93,PI,"Ethyl radical, 1-fluoro-","Williamson, LeBreton, et al., 1976"
 75-07-0,LBLHLM, C,10.22,PI,Acetaldehyde,"Traeger, 1985"
 16681-77-9,, C,10.3,PE,"1H-Tetrazole, 1-methyl-","Palmer, Simpson, et al., 1981"
 61-82-5,, C,8.3,EI,3-Amino-s-triazole,"Maquestiau, Van Haverbeke, et al., 1975"
 58816-63-0,LBLHLM, C,8.8,PE,"1,3-Dithietan-1-oxide","Block, Corey, et al., 1982"
 507-09-5,Vertical value; , C,10.06,PE,Thioacetic acid,"Nagata, Yamabe, et al., 1975"
 2492-74-2,, C,8.70 ¡À 0.03,EI,Ethenesulfenic acid,"Turecek, Brabec, et al., 1988"
 4124-63-4,, C,10.00 ¡À 0.02,PI,mercaptoacetaldehyde,"Watanabe, Nakayama, et al., 1962"
 7117-41-1,Vertical value; , C,9.66,PE,"Thiirane, 1-oxide-","Bock and Solouki, 1974"
 1190-24-5,Vertical value, C,10.58,PE,formylurea,"Dougherty, Wittel, et al., 1976"
 16681-78-0,, C,10,PE,"2H-Tetrazole, 2-methyl-","Palmer, Simpson, et al., 1981"
 61626-05-9,Vertical value, C,8.2,PE,"1,2,4,5-Tetrazine, 3,6-dihydro-","Kaim, 1985"
 289-14-5,LLK, C,10.1,PE,"1,2,4-Trioxolane","Brown and Marcinko, 1978"
 503-27-5,LLK, C,8.95,PE,"2,3-Diazabutadiene","Zverev, Vovna, et al., 1975"
 75-21-8,LL, C,10.15 ¡À 0.05,EI,Ethylene oxide,"Holmes and Lossing, 1991"
 624-73-7,LLK, C,9.4,PE,"Ethane, 1,2-diiodo-","Chau and McDowell, 1975"
 60743-10-4,LBLHLM, C,9.6,PE,"1,3-Dithietan-1,1,3-trioxide","Block, Corey, et al., 1982"
 3741-38-6,LLK, C,10.30 ¡À 0.05,EI,"1,3,2-Dioxathiolane, 2-oxide","Distefano, Foffani, et al., 1971"
 67281-48-5,LBLHLM, C,8.3,PE,Selenoacetaldehyde,"Bock, Aygen, et al., 1984"
 557-75-5,LL, C,9.33 ¡À 0.01,DER,Ethenol,"Ruscic and Berkowitz, 1994"
 74-85-1,LL, C,10.51,CI,Ethylene,"Ohno, Okamura, et al., 1995"
 89149-01-9, , C,9.5,PE,2-Phosphapropene,"Bock and Bankmann, 1986"
 58436-39-8,LL, C,8.8,PE,Vinyl phosphine,"Gonbeau, Lacombe, et al., 1988"
 107257-40-9,Vertical value, C,9.75,PE,1-Phosphapropene,"Lacombe, Gonbeau, et al., 1988"
 1825-82-7,Vertical value, C,11.3,PE,Trichloro(ethoxy)silane,"Green, Lappert, et al., 1971"
 107-30-2,LLK, C,10.2,PE,"Methane, chloromethoxy-","Vereschagin, Salikova, et al., 1980"
 75-89-8,LBLHLM, C,11.49,PE,"Ethanol, 2,2,2-trifluoro-","Koppel, Molder, et al., 1983"
 14410-21-0,, C,9.58 ¡À 0.14,EI,Methyl trifluoromethyl disulfide,"Cullen, Frost, et al., 1970"
 421-16-9,LL, C,9.90 ¡À 0.02,PI,Methyl(trifluoromethyl) sulfide,"Hagenow, Jochims, et al., 1989"
 1558-33-4,Vertical value, C,10.89,PE,"Silane, dichloro(chloromethyl)methyl-","Zykov, Khvostenko, et al., 1981"
 115-21-9,, C,10.74 ¡À 0.04,EI,Ethyltrichlorosilane,"Steele, Nichols, et al., 1962"
 41391-49-5,, C,9.45,PE,Phosphenodithioic ethane,"Bock, Kremer, et al., 1992"
 6569-82-0,LLK, C,9.4 ¡À 0.1,PE,Phosphirane,"Aue, Webb, et al., 1980"
 421-53-4,, C,10.49,PE,"2,2,2-trifluoroethanediol","Koppel, Molder, et al., 1983"
 624-85-1,LLK, C,10.13 ¡À 0.02,PE,Ethyl hypochlorite,"Colbourne, Frost, et al., 1981"
 107-07-3,LBLHLM, C,10.5,PE,2-Chloroethanol,"Ohno, Imai, et al., 1985"
 1498-40-4,LBLHLM, C,9.3,PE,dichloroethylphosphine,"Zverev, Bazhanova, et al., 1983"
 420-46-2,LLK, C,13.3 ¡À 0.1,EI,"Ethane, 1,1,1-trifluoro-","Simmie and Tschuikow-Roux, 1971"
 1498-64-2, , C,9.32 ¡À 0.03,PE,"Phosphorodichloridothioic acid, o-ethyl ester","Vilesov, Lopatin, et al., 1974"
 1498-51-7,Vertical value, C,11.42,PE,Ethyl dichlorophosphate,"Furlani and Andreocci, 1977"
 2373-51-5,Vertical value; , C,9.17,PE,Chloromethylmethyl sulfide,"Weiner and Lattman, 1978"
 107-27-7,LLK, C,9.9,PE,"Mercury, chloroethyl-","Baidin, Chizhov, et al., 1981"
 75-00-3,LL, C,10.95,EST,Ethyl Chloride,"Luo and Pacey, 1992"
 2348-46-1,LL, C,¡Ü6.85,PI,"Ethyl radical, 1-hydroxy","Ruscic and Berkowitz, 1994"
 16520-04-0,LLK, C,6.9,DER,"Methyl radical, methoxy-","Griller and Lossing, 1981"
 2154-50-9,RDSH, C,9.11 ¡À 0.05,EI,Ethoxy radical,"Williams and Hamill, 1968"
 557-99-3,LLK, C,11.51 ¡À 0.02,PE,acetyl fluoride,"Chadwick and Katrib, 1974"
 75-02-5,LLK, C,10.36 ¡À 0.02,PE,"Ethene, fluoro-","Bieri, Niessen, et al., 1981"
 24314-99-6,LLK, C,7.92,PI,"Ethyl radical, 1,1-difluoro-","Williamson, LeBreton, et al., 1976"
 79-08-3,LLK, C,10.4,PE,"Acetic acid, bromo-","Watanabe, Yokoyama, et al., 1973"
 358-97-4,, C,10.75 ¡À 0.02,PI,"1,2-dibromo-1-fluoroethane","Watanabe, Nakayama, et al., 1962"
 64-69-7,LLK, C,9.6,PE,"Acetic acid, iodo-","Watanabe, Yokoyama, et al., 1973"
 38744-24-0,Vertical value, C,9.16,PE,"1,6-Dicarbahexaborane(6),2-iodo-","Beltram and Fehlner, 1979"
 32390-08-2,Vertical value, C,9.43,PE,"1,6-Dicarbahexaborane(6), 2-bromo-","Beltram and Fehlner, 1979"
 33616-59-0,Vertical value, C,9.53,PE,"1,6-Dicarbahexaborane(6),2-chloro-","Beltram and Fehlner, 1979"
 506-96-7,LBLHLM, C,10.24,PI,Acetyl bromide,"Traeger, McLouglin, et al., 1982"
 20693-66-7,LLK, C,10.54,PE,"1,5-Dicarbapentaborane(5)","Fehlner, 1975"
 593-60-2,LLK, C,9.90 ¡À 0.01,S,Vinyl bromide,"Schander and Russell, 1976"
 430-41-1,, C,11.8 ¡À 0.05,EI,Ethylidifluoroborane,"Steele, Nichols, et al., 1962"
 16188-37-7,LLK, C,9.8,PE,"Mercury, bromo-vinyl-","Baidin, Chizhov, et al., 1981"
 593-66-8,LLK, C,9.32,PE,"Ethene, iodo-","Salahub and Boschi, 1974"
 6912-06-7,RDSH, C,10.85,EI,Vinyloxy radical,"Lambert, Christie, et al., 1968"
 3170-69-2,LL, C,7,DER,Acetyl radical,"Lias, Bartmess, et al., 1988"
 5505-49-7,, C,11.58 ¡À 0.04,EI,Ethane-d1,"D'Or, Collin, et al., 1966"
 16339-28-9,, C,11.27,EI,Dichloro-(ethoxy)borane,"Lappert, Litzow, et al., 1970"
 593-57-7,LBLHLM, C,8.1,PE,Dimethylarsine,"Elbel, Dieck, et al., 1982"
 1739-53-3,, C,10.8 ¡À 0.3,EI,Ethyldichloroborane,"Lappert, Pedley, et al., 1966"
 34627-31-1,Vertical value; , C,9.77,PE,1-Phosphapropyne,"Lacombe, Dong, et al., 1992"
 676-59-5,LLK, C,8.47,PE,Dimethylphosphine,"Hodges, McDonnell, et al., 1980"
 6591-05-5,Vertical value, C,8.78,PE,"Phosphine sulfide, dimethyl-","Elbel and Dieck, 1976"
 15849-99-7,Vertical value, C,9.7,PE,"Phosphonothioic dichloride, ethenyl-","Zverev, Islamov, et al., 1991"
 540-51-2,LBLHLM, C,10,PE,"Ethanol, 2-bromo-","Ohno, Imai, et al., 1985"
 593-68-0,RDSH, C,9.5,EI,"Phosphine, ethyl-","Bogolyubov, Grishin, et al., 1969"
 1438-74-0,LLK, C,10.81,PE,"Phosphonic dichloride, ethenyl-","Zverev and Villem, 1980"
 358-95-2,, C,11.06 ¡À 0.03,EI,Vinyldifluoroborane,"Steele, Nichols, et al., 1962"
 2031-95-0,LLK, C,11.5 ¡À 0.1,EI,"Ethane-1,1,1-d3","Suzuki and Maeda, 1977"
 74-96-4,LL, C,10.31,EST,Ethyl bromide,"Luo and Pacey, 1992"
 75-01-4,LL, C,9.98 ¡À 0.02,PI,"Ethene, chloro-","Sheng, Qi, et al., 1995"
 107-20-0, , C,10.48 ¡À 0.03,PE,"Acetaldehyde, chloro-","Cocksey, Eland, et al., 1971"
 75-36-5,LBLHLM, C,10.78,PI,Acetyl chloride,"Traeger, McLouglin, et al., 1982"
 79-00-5, , C,11,PE,"Ethane, 1,1,2-trichloro-","Kimura, Katsumata, et al., 1981"
 71-55-6,LLK, C,11,PE,"Ethane, 1,1,1-trichloro-","Katsumata and Kimura, 1975"
 75-94-5,RDSH, C,10.79 ¡À 0.02,PI,Trichlorovinylsilane,"Watanabe, Nakayama, et al., 1962"
 75-68-3,RDSH, C,11.98 ¡À 0.01,PI,"Ethane, 1-chloro-1,1-difluoro-","Watanabe, Nakayama, et al., 1962"
 28882-22-6,, C,8.38 ¡À 0.02,PE,"Ethyl radical-1,1-d2","Houle and Beauchamp, 1979"
 115-20-8,LBLHLM, C,10.94,PE,"Ethanol, 2,2,2-trichloro-","Koppel, Molder, et al., 1983"
 79-11-8,LLK, C,10.7,PE,"Acetic acid, chloro-","Watanabe, Yokoyama, et al., 1973"
 2680-00-4,, C,10.518 ¡À 0.007,PE,Ethylene-d1,"Carlier and Botter, 1979"
 24521-77-5,LLK, C,10.4,PE,Dimethyl ether hydrogen chloride complex,"Carnovale, Livett, et al., 1980"
 2025-56-1,LL, C,8.117 ¡À 0.008,PI,Ethyl radical,"Ruscic, Berkowitz, et al., 1989"
 2669-89-8,LL, C,8.25,PE,Vinyl radical,"Blush and Chen, 1992"
 87261-57-2,Vertical value, C,9.5,PE,"Dimethylsulfide, complex with hydrogen fluoride","Carnovale, Livett, et al., 1983"
 57877-87-9,Vertical value, C,8.69,PE,"1,2,4,3,5-Dithiazadiborolidine,3,5-dimethyl-","Kroner, Nolle, et al., 1975"
 74-94-2,, C,9.39 ¡À 0.01,PE,"Borane, compd. with dimethylamine (1:1)","Lloyd and Lynaugh, 1972"
 20693-69-0,LLK, C,10.54,PE,"2,4-Dicarbaheptaborane(7)","Fehlner, 1975"
 7211-39-4,Vertical value, C,10.32,PE,dimethylphosphine oxide,"Elbel and Dieck, 1976"
 868-85-9,LLK, C,10.53,PE,Dimethyl phosphite,"Zverev and Villem, 1980"
 4542-61-4,RDSH, C,9.7 ¡À 1.0,EI,"Borane, dimethoxy-","Law and Margrave, 1956"
 2851-73-2,, C,12.2 ¡À 0.3,EI,"Phosphorodiamidous fluoride, tetramethyl, compound with borane(1:1)","Paine, Sodeck, et al., 1972"
 811-59-6,Vertical value, C,12.18,PE,Dimethylaminetrifluoroborane,"Lake, 1971"
 15219-34-8,LLK, C,10.3,PE,oxalyl bromide,"Kimura, Katsumata, et al., 1981"
 70134-71-3,Vertical value, C,9.47,PE,Dibromofuroxan,"Pasinszki and Westwood, 1995"
 79-28-7,, C,9.105,PE,"Ethene, tetrabromo-","Potts, Novak, et al., 1983"
 17819-81-7, , C,9.5,PE,"9-Bromo-1,7-dicarbadodecaborane","Vondrak, 1987"
 79-38-9,LLK, C,10.6 ¡À 0.1,EI,"Ethene, chlorotrifluoro-","Syrvatka, Gil'burd, et al., 1972"
 1540-66-5,Vertical value, C,9.57,PE,"Carbonochloridodithioic acid, trifluoromethyl ester","Bock, Wittel, et al., 1974"
 19513-12-3, , C,9.7,PE,"9-Chloro-1,2-dicarbadodecaborane","Vondrak, 1987"
 17157-02-7, , C,8.7,PE,"9-Iodo-1,7-dicarbadodecaborane","Vondrak, 1987"
 17830-03-4, , C,8.6,PE,"9-Iodo-1,2-dicarbadodecaborane","Vondrak, 1987"
 17819-85-1, , C,9.8,PE,"9-Chloro-1,7-dicarbadodecaborane","Vondrak, 1987"
 76-15-3, , C,12.6,PE,Pentafluoroethyl chloride,"Doucet, Sauvageau, et al., 1975"
 650-52-2,Vertical value, C,11.13,PE,"Phosphinous chloride, bis(trifluoromethyl)-","Cowley, Dewar, et al., 1975"
 56593-16-9, , C,10.8,PE,Dibromobis(trifluoromethyl)germane,"Drake, Gorzelska, et al., 1982"
 124-73-2, , C,11.1,PE,"1,2-Dibromotetrafluoroethane","Chau and McDowell, 1976"
 20464-23-7,Vertical value, C,9.69,PE,"1,3-Dithietane,2,2,4,4-tetrachloro-","Bock, Wagner, et al., 1972"
 127-18-4,LL, C,9.3256 ¡À 0.0006,S,Tetrachloroethylene,"Williams and Cool, 1990"
 25604-70-0,LBLHLM, C,9.85 ¡À 0.02,EI,Bromochloroacetylene,"Klapstein, Maier, et al., 1984"
 624-61-3,LBLHLM, C,9.67 ¡À 0.01,PE,"Acetylene, dibromo-","Klapstein, Maier, et al., 1983"
 76-02-8,LLK, C,11,PE,Trichloroacetyl chloride,"Katsumata and Kimura, 1975"
 2875-98-1,Vertical value, C,8.5 ¡À 0.1,PE,"Silanamine, N,N-dimethyl-","Cradock, Ebsworth, et al., 1972"
 76-12-0, , C,11.3,PE,"Ethane, 1,1,2,2-tetrachloro-1,2-difluoro-","Dumas, Dupuis, et al., 1981"
 67-72-1,LLK, C,11.1,PE,"Ethane, hexachloro-","Kimura, Katsumata, et al., 1981"
 25604-71-1,RDSH, C,9.7 ¡À 0.1,EI,1-Chloro-2-iodoacetylene,"Kloster-Jensen, Pascual, et al., 1970"
 598-73-2, , C,9.67,PE,bromotrifluoroethylene,"Cullen, Frost, et al., 1972"
 37769-29-2,, C,9.3 ¡À 0.2,EI,"Cobalt, dicarbonyl(bis(phosphorus trifluoride)(trichlorosilyl)-","Saalfeld, McDowell, et al., 1972"
 545-06-2,LBLHLM, C,11.89,PE,"Acetonitrile, trichloro-","Molder, Pikver, et al., 1983"
 15525-31-2,, C,8.4 ¡À 0.1,EI,Cobalt dicarbonyl nitrosyl (phosphorus trichloride),"Foffani, Pignataro, et al., 1967"
 65027-52-3, , C,9.1,PE,"1,2,4,3,5-Trithia(4-s(iv))diazole, 1-(trichloroacetyl)imino]-1,1-dihydro-","Andreocci, Bossa, et al., 1980"
 76-13-1,RDSH, C,11.99 ¡À 0.02,PI,"Ethane, 1,1,2-trichloro-1,2,2-trifluoro-","Watanabe, Nakayama, et al., 1962"
 354-58-5,LLK, C,11.5,PE,"Ethane, 1,1,1-trichloro-2,2,2-trifluoro-","Dumas, Dupuis, et al., 1981"
 2814-79-1,RDSH, C,10.18 ¡À 0.05,EI,"Silane, ethyl-","Steele, Nichols, et al., 1962"
 1111-74-6,LLK, C,10.3,PE,"Silane, dimethyl-","Potzinger, Ritter, et al., 1975"
 23653-23-8,Vertical value, C,10.5,PE,"1,10-Dicarbadecaborane(10)","Fehlner, Wu, et al., 1980"
 13904-95-5,Vertical value, C,8.87,PE,"Sulfur, diimidodimethyl-","Solouki, Bock, et al., 1975"
 540-73-8,LLK, C,9.62,PE,"Hydrazine, 1,2-dimethyl-","Barz and Fritz, 1972"
 107-15-3,LLK, C,8.6,PE,Ethylenediamine,"Kimura, Katsumata, et al., 1981"
 624-80-6,Vertical value, C,8.12 ¡À 0.05,PE,"Hydrazine, ethyl-","Vovna, Vilesov, et al., 1975"
 57-14-7,LBLHLM, C,7.29 ¡À 0.05,EQ,"Hydrazine, 1,1-dimethyl-","Mautner(Meot-Ner), Nelsen, et al., 1984"
 2837-86-7,, C,9.86 ¡À 0.02,PI,(Z)-1-Chloro-2-fluoroethene,"Momigny, 1963"
 30860-28-7,, C,9.83 ¡À 0.02,PI,(E)-1-Chloro-2-fluoroethene,"Momigny, 1963"
 19316-37-1,, C,8.85 ¡À 0.05,EI,"Phosphoric triamide, N,N-dimethyl-","Baldwin, Loudon, et al., 1977"
 359-10-4,LLK, C,9.76,S,"Ethene, 2-chloro-1,1-difluoro-","Scott and Russell, 1972"
 4268-35-3,Vertical value, C,10.18,PE,"p,p-Dimethylphosphine-borane","Cowley, Kemp, et al., 1982"
 79-01-6,LLK, C,9.68,PE,Trichloroethylene,"Kimura, Katsumata, et al., 1981"
 75-87-6,LBLHLM, C,10.9,PE,Chloral,"Guimon, Pfister-Guillouzo, et al., 1985"
 12602-24-3,, C,9.6 ¡À 0.3,EI,"Tetraborane(8), N,N-dimethylaminodifluorophosphine-p-","Paine, Sodeck, et al., 1972"
 79-36-7, , C,11,PE,"Acetyl chloride, dichloro-","Katsumata and Kimura, 1975"
 29804-89-5,Vertical value; , C,9.24,PE,Chloroketene,"Bock, Hirabayashi, et al., 1981"
 593-63-5,LBLHLM, C,10.6,PE,"Ethyne, chloro-","Maier and Thommen, 1984"
 2067-76-7,, C,10,PE,"Stannane, dimethyl-","Lango, Szepes, et al., 1984"
 1449-64-5,Vertical value; , C,10.8,PE,"Germane, dimethyl-","Lango, Szepes, et al., 1984"
 76-01-7,LLK, C,11,PE,"Ethane, pentachloro-","Katsumata and Kimura, 1975"
 1747-99-5,Vertical value; , C,10.4,PE,"Germane, ethyl-","Beltram, Fehlner, et al., 1980"
 3018-12-0,LBLHLM, C,12,PE,"Acetonitrile, dichloro-","Molder, Pikver, et al., 1983"
 306-83-2,LLK, C,11.5,PE,"Ethane, 2,2-dichloro-1,1,1-trifluoro-","Dumas, Dupuis, et al., 1981"
 354-23-4,Vertical value; , C,12,PE,"Ethane, 1,2-dichloro-1,1,2-trifluoro-","Doucet, Sauvageau, et al., 1975"
 18972-20-8,Vertical value, C,9.6,PE,"2,3-Dicarbahexaborane(8)","Ulman and Fehlner, 1978"
 1838-13-7,, C,9.51,PE,(dimethylamino)borane,"Bock and Fuss, 1971"
 23841-80-7,, C,9.0 ¡À 0.5,EI,1-Ethyldecaborane(14),"Margrave, 1960"
 20644-12-6,LL, C,10.3 ¡À 0.2,PI,"1,12-Dicarbadodecaborane(12)","Orlov, Pustobaev, et al., 1988"
 593-79-3,LBLHLM, C,8.36,PE,Dimethyl selenide,"Chang, Young, et al., 1986"
 16090-49-6, , C,8.6,PE,Dimethylgermathione,"Garcia, Gonbeau, et al., 1985"
 2366-31-6,Vertical value, C,9.75,PE,"Ethene, 1-bromo-2-fluoro-, (Z)-","Wittel and Bock, 1974"
 290-96-0,LLK, C,9.14,PE,"1,2,4,5-Tetrazine","Gleiter, Heilbronner, et al., 1972"
 590-12-5,LLK, C,9.47 ¡À 0.01,S,"Ethene, 1,2-dibromo-, (E)-","Wittel, Felps, et al., 1976"
 7101-31-7,LBLHLM, C,8.1,PE,Methyl diselenide,"Bock, Aygen, et al., 1984"
 590-11-4,LLK, C,9.63 ¡À 0.01,S,"Ethene, 1,2-dibromo-, (Z)-","Schander and Russell, 1976"
 593-92-0,LBLHLM, C,9.78,PE,"Ethylene, 1,1-dibromo-","Von Niessen, Asbrink, et al., 1982"
 75-82-1,RDSH, C,10.83 ¡À 0.01,PI,"Ethane, 1,2-dibromo-1,1-difluoro-","Watanabe, Nakayama, et al., 1962"
 5061-27-8,Vertical value, C,9.7,PE,Dimethylgermanone,"Pfister-Guillouzo and Guimon, 1985"
 7291-09-0,Vertical value; , C,10.4,PE,vinylsilane,"Weidner and Schweig, 1972"
 1070-76-4,Vertical value, C,10.46,PE,Disilyl acetylene,"Ensslin, Bock, et al., 1974"
 7343-33-1,Vertical value, C,9.9,PE,"1H-1,2,4-Triazole, 3-bromo-","Guimon, Pfister-Guillouzo, et al., 1980"
 590-17-0,Vertical value, C,11.28,PE,"Acetonitrile, bromo-","Botter, Gounelle, et al., 1977"
 26223-16-5,LLK, C,8.9,PE,"1,2,3-Selenadiazole","Bock, Aygen, et al., 1980"
 2932-82-3,LL, C,9.9 ¡À 0.1,DER,Cyanomethyl radical,"Holmes, Lossing, et al., 1993"
 21094-80-4,, C,8.4,PE,Mercury bis(methanethiolate),"Biscarini, Colonna, et al., 1981"
 593-74-8,RDSH, C,9.10 ¡À 0.05,PI,"Mercury, dimethyl-","Distefano and Dibeler, 1970"
 16986-24-6,LL, C,10.14,PI,"1,7-Dicarbadodecaborane(12)","Orlov, Pustobaev, et al., 1989"
 15337-44-7,LL, C,5.17,DER,Dimethyl amidogen,"Lias, Bartmess, et al., 1988"
 30208-36-7,LBLHLM, C,5.7,DER,CH3CHNH2,"Burkey, Castelhano, et al., 1983"
 31277-24-4,LBLHLM, C,5.9,DER,CH2NHCH3,"Burkey, Castelhano, et al., 1983"
 4143-41-3,LLK, C,8.45 ¡À 0.05,PI,(E)-CH3N=NCH3,"Foster, Williamson, et al., 1974"
 503-28-6,LLK, C,8.3,PE,"Diazene, dimethyl-","Frost, Lee, et al., 1976"
 23120-99-2,, C,7.95 ¡À 0.05,EI,Dimethylstannylene radical,"Lampe and Niehaus, 1968"
 544-97-8,RDSH, C,9.00 ¡À 0.02,PI,Dimethylzinc,"Distefano and Dibeler, 1970"
 5397-03-5,, C,8.81,PE,"Hydrazinecarbodithioic acid, methyl ester","Cauletti, Tarli, et al., 1980"
 598-52-7,RDSH, C,8.29 ¡À 0.05,EI,"Thiourea, methyl-","Baldwin, Maccoll, et al., Ind. 1966"
 598-50-5,RDSH, C,9.73 ¡À 0.05,EI,"Urea, methyl-","Baldwin, Kirkien-Konasiewicz, et al., 1966"
 62-75-9,LLK, C,8.69,PE,N-Nitrosodimethylamine,"White, Colton, et al., 1975"
 54168-20-6,LLK, C,9.7,PE,(E)-Methylazoxymethane,"Bunzli, Olsen, et al., 1977"
 16872-09-6,LL, C,10.13,PI,"1,2-Dicarbadodecaborane(12)","Orlov, Pustobaev, et al., 1989"
 4164-28-7,LLK, C,9.53,PE,"Methanamine, N-methyl-N-nitro-","White, Colton, et al., 1975"
 37765-15-4,LBLHLM, C,8.3,PE,(E)-Azodioxymethane,"Frost, Lau, et al., 1982"
 503-20-8,Vertical value; , C,12.81,PE,"Acetonitrile, fluoro-","Molder, Pikver, et al., 1983"
 18555-26-5,Vertical value, C,8.83,PE,"1,3-Dithietane-2-thione","Wittel, Astrup, et al., 1975"
 353-83-3,LLK, C,9.998,S,"1,1,1-Trifluoro-2-iodoethane","Boschi and Salahub, 1972"
 18282-77-4,LLK, C,8.77,PE,Thioketene,"Rosmus, Solouki, et al., 1977"
 6818-99-1,Vertical value, C,10.1,PE,"1H-1,2,4-Triazole, 3-chloro-","Guimon, Pfister-Guillouzo, et al., 1980"
 3268-79-9,, C,10.29,PE,Chloromethyl thiocyanate,"Molder, Pikver, et al., 1983"
 107-14-2,LLK, C,11.95 ¡À 0.01,PE,Chloromethyl cyanide,"Staley, Kleckner, et al., 1976"
 590-26-1,LLK, C,8.6,PE,"(Z)-1,2-Diiodoethylene","Wittel, Bock, et al., 1974"
 590-27-2,Vertical value; , C,8.92,PE,"(E)-1,2-Diiodoethylene","Wittel, Bock, et al., 1974"
 7092-01-5,LBLHLM, C,8.5,PE,"1,2-Dithiete","Schulz, Schweig, et al., 1983"
 79-04-9,Vertical value, C,10.3,PE,"Acetyl chloride, chloro-","Katsumata and Kimura, 1975"
 79-02-7, , C,10.5,PE,Dichloroacetaldehyde,"Katsumata and Kimura, 1975"
 1649-08-7,Vertical value; , C,11.8,PE,"Ethane, 1,2-dichloro-1,1-difluoro-","Dumas, Dupuis, et al., 1981"
 630-20-6, , C,11.1,PE,"Ethane, 1,1,1,2-tetrachloro-","Kimura, Katsumata, et al., 1981"
 79-34-5,LLK, C,¡Ü11.62,PE,"Ethane, 1,1,2,2-tetrachloro-","Kimura, Katsumata, et al., 1981"
 156-60-5,RDSH, C,9.64,PE,"Ethylene, 1,2-dichloro-, (E)-","Lake and Thompson, 1970"
 156-59-2,RDSH, C,9.65,PE,"Ethylene, 1,2-dichloro-, (Z)-","Lake and Thompson, 1970"
 75-35-4,RDSH, C,9.83,PE,"Ethene, 1,1-dichloro-","Lake and Thompson, 1970"