CAS,Comment,Formula,IE,Method,Name,Refer
 776-76-1,LLK, C,8.75 ¡À 0.15,EI,"Silane, methyldiphenyl-","Gaidis, Briggs, et al., 1971"
 51177-84-5,, C,6.82 ¡À 0.05,PE,"Titanium, ¦Ç","Andrea, Terpstra, et al., 1986"
 941-81-1,Vertical value; , C,7.1,PE,"4,6,8-Trimethylazulene","Dougherty, Lewis, et al., 1980"
 67145-41-9,Vertical value, C,8.46 ¡À 0.05,PE,"3,8-Methanocyclobuta[b]naphthalene,1,2,2a,3,8,8a-hexahydro-(2a¦Á,3¦Á,8¦Á,8a¦Á)-","Domelsmith, Mollere, et al., 1978"
 4544-23-4,, C,7.73,PE,"Benzene,[2-(2-methyl-1-propenylidene)cyclopropyl]-","Pasto, Fehlner, et al., 1976"
 42919-38-0,, C,8.54 ¡À 0.05,PE,"5,10-Methanobenzocyclooctene,5,6,9,10-tetrahydro-","Domelsmith, Mollere, et al., 1978"
 42607-62-5,LLK, C,8.5,PE,"8,11-Dimethylenepentacyclo[5.4.0.0","Shen and Kuebler, 1973"
 42919-37-9,, C,8.66 ¡À 0.05,PE,"5,10-Methanobenzocyclooctene,5,6,7,10-tetrahydro-","Domelsmith, Mollere, et al., 1978"
 67109-90-4,Vertical value, C,8.60 ¡À 0.05,PE,"3,8-Methanocyclobuta[b]naphthalene,1,2,2a,3,8,8a-hexahydro-(2a¦Á3¦Â,8¦Â,8a¦Á)-","Domelsmith, Mollere, et al., 1978"
 54039-40-6,Vertical value, C,5.6 ¡À 0.1,PE,"Tantalum, bis(¦Ç","Van Dam, Terpstra, et al., 1981"
 1082-57-1,Vertical value, C,7.62,PE,"1H-Imidazol-2-amine, 4,5-dihydro-N-(5,6,7,8-tetrahydro-1-naphthalenyl)-","de Jong and Van Dam, 1980"
 37905-22-9, , C,8,PE,1-(p-methylphenyl)-silatrane,"Peel and Dianxum, 1988"
 60037-51-6, , C,8.1,PE,"2',3',5'-Tri-o-methyladenosine","Yu, O'Donnell, et al., 1981"
 552-82-9, , C,6.94 ¡À 0.03,PI,"Benzenamine, N-methyl-N-phenyl-","Potapov, Kardash, et al., 1972"
 6373-46-2,LLK, C,7.58,CTS,4-Benzyloxyaniline,"Weschke, Timpe, et al., 1979"
 1484-26-0,, C,8,EI,3-Benzyloxyaniline,"Ward, Cooks, et al., 1969"
 2063-88-9,Vertical value, C,8.11,PE,"2-Azabicyclo[3.2.1]octa-3,6-diene,2-(phenylsulfonyl)-","Barraclough, Bilgic, et al., 1979"
 1135-12-2,, C,7.67 ¡À 0.05,EI,"Benzenamine, 4-(phenylmethyl)-","Pignataro, Mancini, et al., 1972"
 22967-34-6,, C,7.04,EI,1-Cyclohexylaminoethylidenechromium pentacarbonyl,"Muller and Connor, 1969"
 24151-60-8,Vertical value, C,8.3,PE,"Rhodium, dicarbonyl 2,2,6,6-tetramethylheptan-3,5-dionato-o,o'","Van Dam, Terpstra, et al., 1980"
 21494-33-7,, C,7.57,EI,Tri-n-butylphosphite-p-iron carbonyl dinitrosyl,"Innorta, Distefano, et al., 1968"
 5503-65-1,Vertical value, C,8.72,PE,"2-Azabicyclo[3.2.1]octane,2-(phenylsulfonyl)-","Barraclough, Bilgic, et al., 1979"
 51069-11-5,Vertical value, C,8.13 ¡À 0.015,PE,"1-Azabicyclo[2.2.2]octane, 4-phenyl-","Bieri and Heilbronner, 1974"
 81506-11-8,Vertical value; , C,7.82 ¡À 0.06,PE,"N-(2,6-Diethylphenyl)azetidine","Rozeboom, Houk, et al., 1982"
 39413-65-5, , C,5.5,PE,"Niobium, bis(¦Ç","Van Dam, Terpstra, et al., 1981"
 81506-14-1,Vertical value; , C,7.70 ¡À 0.06,PE,"N-(2,4-Dimethylphenyl)piperidine","Rozeboom, Houk, et al., 1982"
 81506-15-2,LBLHLM, C,7.35,PE,"N-(2,6-Dimethylphenyl)piperidine","Rozeboom, Houk, et al., 1982"
 75197-24-9,LBLHLM, C,7.3,PE,1-Azabicyclo[4.4.4]tetradecane,"Alder, Arrowsmith, et al., 1982"
 20422-70-2,, C,7.30 ¡À 0.02,EI,"4-Quinolinol, 4-ethyldecahydro-1,2-dimethyl-, (2¦Á,4¦Á,4a¦Á,8a¦Â)-","Zaikin and Wulfson, 1978"
 5498-70-4,Vertical value, C,8.72,PE,"1-Azacyclotridecan-2-one, 1-methyl-","Treschanke and Rademacher, 1985"
 20422-72-4,, C,7.32 ¡À 0.02,EI,"4-Quinolinol, 4-ethyldecahydro-1,2-dimethyl-, (2¦Á,4¦Â,4a¦Á,8a¦Â)-","Zaikin and Wulfson, 1978"
 20422-68-8,, C,7.19 ¡À 0.02,EI,"4-Quinolinol, 4-ethyldecahydro-1,2-dimethyl-, (2¦Á,4¦Á,4a¦Â,8a¦Á)-","Zaikin and Wulfson, 1978"
 12130-88-0, , C,7.3,PE,"Rhenium, tricarbonyl(¦Ç","Calabro, Hubbard, et al., 1981"
 1486-28-8,Vertical value; , C,8.28 ¡À 0.05,PE,"Phosphine, methyldiphenyl-","Ikuta, Kebarle, et al., 1982"
 11065-40-0,Vertical value, C,5.67 ¡À 0.05,PE,"Titanium, (¦Ç8-1,3,5,7-cyclooctatetraene)(¦Ç5-2,4-cyclopentadien-1-yl)-","Evans, Green, et al., 1974"
 55480-71-2, , C,6.55,PE,"Rhodium, (¦Ç","Green, Powell, et al., 1984"
 32044-03-4,, C,6.70 ¡À 0.05,EI,"Thiazolo[3,2-a]pyridinium, 3-hydroxy-2-phenyl-, hydroxide, inner salt","Fjeldstad and Undheim, 1973"
 35143-57-8,, C,8.42 ¡À 0.05,EI,"Thiazolo[3,2-a]pyridinium, 3,8-dihydroxy-2-phenyl-, hydroxide, inner salt","Fjeldstad and Undheim, 1973"
 2382-08-3,Vertical value, C,8.57 ¡À 0.05,PE,"1H-Benz[de]isoquinoline-1,3(2H)-dione,2-methyl-","Bigotto, Galasso, et al., 1979"
 959-22-8,LL, C,9.19,PI,"Benzoic acid, 4-nitrophenyl ester","Orlov, Ponomarev, et al., 1991"
 578-95-0,RDSH, C,7.60 ¡À 0.03,PI,9(10H)-Acridinone,"Potapov, Filyugina, et al., 1968"
 10399-73-2,Vertical value; , C,7.45 ¡À 0.02,PE,Acridine 10-oxide,"Maier, Muller, et al., 1975"
 2243-80-3,LLK, C,9.8 ¡À 0.1,EI,3-Nitrobenzophenone,"Krenmayr, Heller, et al., 1974"
 2243-79-0,, C,9.6 ¡À 0.1,EI,"Methanone, (2-nitrophenyl)phenyl-","Krenmayr, Heller, et al., 1974"
 1144-74-7,LLK, C,10. ¡À 0.1,EI,"Methanone, (4-nitrophenyl)phenyl-","Krenmayr, Heller, et al., 1974"
 59019-84-0,Vertical value; , C,8.44,PE,2-Phenazinecarbonitrile-10-oxide,"Albini and Mark, 1976"
 2491-56-7,LLK, C,7.7,PE,2-Hydroxy-5-methyl-4'-chloroazobenzene,"Millefiori and Millefiori, 1981"
 19116-23-5,LLK, C,7.7,PE,2-Hydroxy-5-methyl-3'-chloroazobenzene,"Millefiori and Millefiori, 1981"
 24318-02-3,, C,8.5,EI,Benzyl 3-chlorophenyl ether,"Ward, Cooks, et al., 1969"
 20912-69-0,, C,7.91,CTS,"Benzene,1-chloro-4-[(4-methoxyphenyl)thio]-","Aloisi, Santini, et al., 1974"
 7700-27-8,LLK, C,8.34,CTS,"Benzene,1-chloro-4-(phenylmethoxy)-","Weschke, Timpe, et al., 1979"
 134-85-0,LLK, C,9.6 ¡À 0.1,EI,"Methanone, (4-chlorophenyl)phenyl-","Heller, Varmuza, et al., 1974"
 1016-78-0,LLK, C,9.6 ¡À 0.1,EI,"Methanone, (3-chlorophenyl)phenyl-","Krenmayr, Heller, et al., 1974"
 5162-03-8,, C,9.6 ¡À 0.1,EI,"Methanone, (2-chlorophenyl)phenyl-","Krenmayr, Heller, et al., 1974"
 260-94-6,RDSH, C,7.39,CTS,Acridine,"Slifkin and Allison, 1967"
 260-36-6,, C,7.6 ¡À 0.1,CTS,Benzo[g]quinoline,"Farrell and Newton, 1966"
 110935-20-1,Vertical value, C,7.22,PE,"Iron, dicarbonyl-cyclopentadienyl-4-chlorobenzenethiolato-","Ashby, Enemark, et al., 1988"
 229-87-8,LLK, C,8.31 ¡À 0.02,PE,Phenanthridine,"Hush, Cheung, et al., 1975"
 229-67-4,, C,8.3 ¡À 0.1,CTS,Benzo[f]isoquinoline,"Farrell and Newton, 1966"
 85-02-9,LLK, C,8.14,PE,Benzo[f]quinoline,"Hush, Cheung, et al., 1975"
 230-27-3,LLK, C,8.04 ¡À 0.02,PE,Benzo[h]quinoline,"Hush, Cheung, et al., 1975"
 22852-51-3,, C,7.02,EI,1-Anilinoethylidenechromium pentacarbonyl,"Muller and Connor, 1969"
 2299-68-5,RDSH, C,7.07,EI,Fluorenyl radical,"Pottie and Lossing, 1963"
 27436-94-8,, C,7.3 ¡À 0.1,EI,"Chromium,pentacarbonyl[(4-fluorophenyl)methoxymethylene]-","Fischer, Kreiter, et al., 1971"
 1435-68-3,LLK, C,7.7,PE,2-Hydroxy-5-methyl-4'-nitroazobenzene,"Millefiori and Millefiori, 1981"
 19020-84-9,Vertical value; , C,8.19,PE,2-Hydroxy-5-methyl-3'-nitroazobenzene,"Millefiori and Millefiori, 1981"
 1207-72-3, , C,6.73 ¡À 0.07,CTS,"10H-Phenothiazine, 10-methyl-","Poltorakov, Pirnazarova, et al., 1973"
 538-51-2,LLK, C,8,PE,"Benzenamine, N-(phenylmethylene)-","Akaba, Tokumaru, et al., 1980"
 92-81-9,RDSH, C,7.24 ¡À 0.03,PI,"Acridine, 9,10-dihydro-","Potapov, Filyugina, et al., 1968"
 1484-12-4,, C,7.5 ¡À 0.1,EI,"9H-Carbazole, 9-methyl-","Riepe and Zander, 1969"
 5097-93-8,LLK, C,8.36,EI,"4-(2-Phenylvinyl)pyridine, trans-","Schubert, Ramana, et al., 1980"
 538-49-8,LLK, C,8.15,EI,"2-(2-Phenylvinyl)pyridine, trans","Schubert, Ramana, et al., 1980"
 93-98-1,, C,8.1 ¡À 0.1,EI,"Benzamide, N-phenyl-","Shapiro, Turk, et al., 1970"
 1137-41-3,, C,8.4 ¡À 0.1,EI,"Methanone, (4-aminophenyl)phenyl-","Krenmayr, Heller, et al., 1974"
 2835-77-0,LLK, C,8.3 ¡À 0.1,EI,2-Aminobenzophenone,"Krenmayr, Heller, et al., 1974"
 2835-78-1,, C,8.5 ¡À 0.1,EI,3-Aminobenzophenone,"Krenmayr, Heller, et al., 1974"
 1817-77-2,, C,9.35 ¡À 0.05,EI,"Benzene, 1-nitro-4-(phenylmethyl)-","Pignataro, Mancini, et al., 1972"
 24318-00-1,, C,9,EI,Benzyl 3-nitrophenyl ether,"Ward, Cooks, et al., 1969"
 71906-48-4,Vertical value, C,8.44,PE,"1,4-Methanonaphthalene-2-carbonitrile,1,4-dihydro-8-methoxy-","Ku, Paquette, et al., 1979"
 71906-42-8,Vertical value, C,8.22,PE,"1,4-Methanonaphthalene-2-carbonitrile,1,4-dihydro-6-methoxy-","Ku, Paquette, et al., 1979"
 1145-76-2,, C,9.1,EI,"Benzene, 1-nitro-4-(phenylmethoxy)-","Ward, Cooks, et al., 1969"
 71906-50-8,Vertical value, C,8.46,PE,"1,4-Methanonaphthalene-2-carbonitrile,1,4-dihydro-5-methoxy-","Ku, Paquette, et al., 1979"
 59862-61-2,Vertical value, C,7.75,PE,"Benzenemethanimine, ¦Á-phenyl-N-oxide","Armen, Braunstein, et al., 1979"
 15260-65-8,LLK, C,8.65,EI,2-(1-Phenylethenyl)pyridine,"Schubert and Grutzmacher, 1980"
 54523-78-3,, C,8.72,EI,"Methanone,(2-methylphenyl)-2-pyridinyl-","Schubert and Grutzmacher, 1980"
 1519-59-1,LLK, C,8.15,EI,"2-(2-Phenylvinyl)pyridine, cis","Grutzmacher, Schaldach, et al., 1980"
 5097-91-6,LLK, C,8.35,EI,"3-(2-Phenylethenyl)pyridine, (E)","Schubert, Ramana, et al., 1980"
 7083-63-8,LBLHLM, C,7.25,PE,4-Aminofluorene,"Gleiter, Schafer, et al., 1984"
 398-14-1,Vertical value, C,7.34,PE,Acridophosphine,"Jongsma, Vermeer, et al., 1975"
 110935-22-3,Vertical value, C,7.58,PE,"Iron, dicarbonyl-cyclopentadienyl-4-nitrobenzenethiolato-","Ashby, Enemark, et al., 1988"
 54813-56-8,LLK, C,8.9,EI,4-(1-Phenylethenyl)pyridine,"Schubert and Grutzmacher, 1980"
 74309-58-3,LLK, C,8.73,EI,3-(1-Phenylethenyl)pyridine,"Schubert and Grutzmacher, 1980"
 59788-14-6,Vertical value, C,6.56,PE,"2H-Benz[f]isoindole,2-methyl-","Rettig and Wirz, 1976"
 63428-46-6,Vertical value, C,7.19,PE,"Rhodium, bis(ethylene)-indenyl-","Frankcom, Green, et al., 1993"
 4471-17-4,RDSH, C,7.3 ¡À 0.1,EI,Diphenylmethyl radical,"Harrison and Lossing, 1960"
 34807-89-1,LLK, C,7,PE,¦Ç,"Calabro, Hubbard, et al., 1981"
 74684-28-9,Vertical value, C,8.2,PE,"Iridium, dicarbonyl 2,2,6,6-tetramethylheptan-3,5-dionato-o,o'","Van Dam, Terpstra, et al., 1980"
 51231-84-6,, C,6.60 ¡À 0.13,EI,"Molybdenum,bromobis(¦Ç","Harris and Spalding, 1980"
 63340-08-9,Vertical value, C,8.64,PE,"Benzene,1-chloro-4-[1-(1,1-dimethylethyl)cyclopropyl]-","Prins, Verhoeven, et al., 1977"
 71017-42-0,, C,8.79,PE,"2-Azabicyclo[3.2.1]oct-6-ene,2-(phenylsulfonyl)-","Barraclough, Bilgic, et al., 1979"
 2063-89-0,Vertical value, C,8.18,PE,"2-Azabicyclo[3.2.1]oct-3-ene,2-(phenylsulfonyl)-","Barraclough, Bilgic, et al., 1979"
 56359-28-5,, C,7.9 ¡À 0.1,EI,"Indeno[1,2-b]azirin-6(1H)-one,1-butyl-1a,6a-dihydro-","Hansen and Undheim, 1975"
 20571-42-0,Vertical value, C,7.41,PE,"2H-1-Benzopyran-2-one, 7-(diethylamino)-","Redchenko, Safronov, et al., 1992"
 15745-94-5,, C,8.71,EI,"2,4-Azetidinedione,3,3-diethyl-1-phenyl-","Compernolle and DeSchryver, 1975"
 109316-13-4,, C,7.73 ¡À 0.05,EI,Isocyanotoluenemolybdenum pentacarbonyl,"Distefano, Innorta, et al., 1968"
 29160-37-0,, C,7.3 ¡À 0.1,EI,"Chromium,pentacarbonyl[(4-chlorophenyl)methoxymethylene]-","Fischer, Kreiter, et al., 1971"
 68586-68-5,Vertical value, C,6.5 ¡À 0.1,PE,"Tantalum, bis(¦Ç","Van Dam, Terpstra, et al., 1981"
 32610-45-0, , C,6.3,PE,"Rhodium, [(1,2,5,6-¦Ç)-1,5-cyclooctadiene](¦Ç5-2,4-cyclopentadien-1-yl)-","Green, Powell, et al., 1984"
 53248-14-9,, C,6.6,EI,"Chromium,dicarbonyl[(1,2,3,4,5,6-¦Ç)-methylbenzoate](trimethylphosphite-p)-","Simonneaux, Jaouen, et al., 1977"
 12184-35-9, , C,6.5,PE,"Cobalt, [(1,2,5,6-¦Ç)-1,5-cyclooctadiene](¦Ç5-2,4-cyclopentadien-1-yl)-","Wakatuski, Yamazaki, et al., 1987"
 51231-83-5,, C,6.55 ¡À 0.12,EI,"Molybdenum,chlorobis(¦Ç","Harris and Spalding, 1980"
 13524-43-1,Vertical value, C,9.13,PE,"Boron, dibutyl-(pentan-2,4-dionato)-","Borisenko, Vovna, et al., 1987"
 3007-70-3,, C,7.5,CTS,N-Heptylaniline,"Briegleb and Czekalla, 1959"
 16067-45-1,, C,7.27 ¡À 0.02,EI,"4-Quinolinol, 4-ethynyldecahydro-1,2-dimethyl-, (2¦Á,4¦Á,4a¦Â,8a¦Á)-","Zaikin and Wulfson, 1978"
 16067-80-4,, C,7.40 ¡À 0.02,EI,"4-Quinolinol, 4-ethynyldecahydro-1,2-dimethyl-, (2¦Á,4¦Á,4a¦Á,8a¦Â)-","Zaikin and Wulfson, 1978"
 13358-76-4,Vertical value; , C,7.67,PE,"5,5-Dimethyl-3-(piperidino)cyclohex-2-en-1-one","Pfister-Guillouzo, Geribaldi, et al., 1982"
 14788-65-9,, C,7.41 ¡À 0.02,EI,"4-Quinolinol, 4-ethynyldecahydro-1,2-dimethyl-, (2¦Á,4¦Â,4a¦Á,8a¦Â)-","Zaikin and Wulfson, 1978"
 51249-26-4,, C,6.51 ¡À 0.09,EI,"Molybdenum,bis(¦Ç","Harris and Spalding, 1980"
 82663-50-1,Vertical value; , C,8.07,PE,"5,5-Dimethyl-3-(n-pentylamino)cyclohex-2-en-1-one","Pfister-Guillouzo, Geribaldi, et al., 1982"
 20431-95-2,, C,7.39 ¡À 0.02,EI,"4-Quinolinol, 4-ethenyldecahydro-1,2-dimethyl-, (2¦Á,4¦Â,4a¦Á,8a¦Â)-","Zaikin and Wulfson, 1978"
 20431-91-8,, C,7.26 ¡À 0.02,EI,"4-Quinolinol, 4-ethenyldecahydro-1,2-dimethyl-, (2¦Á,4¦Á,4a¦Â,8a¦Á)-","Zaikin and Wulfson, 1978"
 20431-93-0,, C,7.43 ¡À 0.02,EI,"4-Quinolinol, 4-ethenyldecahydro-1,2-dimethyl-, (2¦Á,4¦Á,4a¦Á,8a¦Â)-","Zaikin and Wulfson, 1978"
 51192-04-2,, C,6.77 ¡À 0.12,EI,"Tantalum,bis(¦Ç","Harris and Spalding, 1980"
 84509-55-7,LBLHLM, C,6.8,PE,1-Azabicyclo[4.4.4]tetradec-5-ene,"Alder, Arrowsmith, et al., 1982"
 64503-45-3,Vertical value, C,8.17 ¡À 0.05,PE,"Thioborinic acid, dipropyl-, 4-methoxyphenyl ester","Bernardi, Danieli, et al., 1977"
 64503-47-5,Vertical value, C,8.59 ¡À 0.05,PE,"Thioborinic acid, dipropyl-, 3-methylphenyl ester","Bernardi, Danieli, et al., 1977"
 36252-42-3,, C,7.65 ¡À 0.05,EI,Pentacarbonyl(2-pyridinecarbonitrile-N(1))tungsten,"Distefano, Foffani, et al., 1971"
 64503-46-4,Vertical value, C,8.48 ¡À 0.05,PE,"Thioborinic acid, dipropyl-, 4-methylphenyl ester","Bernardi, Danieli, et al., 1977"
 6409-44-5,, C,9.5,EI,3-chloro-7H-benzo[de]anthracen-7-one,"Abliz, Ueda, et al., 1990"
 113035-27-1,Vertical value, C,6.7,PE,"2-Azapentalene, 1,3-bis(dimethylamino)-4,6-bis(trimethylsilyl)-","Eckert-Maksic, Gleiter, et al., 1988"
 568-02-5,, C,7.35,PI,"Naphtho[2,3-f]quinoline-7,12-dione, 5,6-dihydroxy-","Terenin, 1961"
 2844-24-8,LBLHLM, C,6.16,PE,"(E)-4-(2-(4-Methoxyphenyl)ethenyl)benzenamine, N,N-dimethyl","Cauletti, Furlani, et al., 1985"
 70389-13-8,Vertical value, C,7.7,PE,16-Azatricyclo[9.2.2.1,"Reingold, Schmidt, et al., 1979"
 57-27-2,Vertical value, C,8.3,PE,Morphine,"Popkie, Koski, et al., 1976"
 225-11-6,, C,8.1 ¡À 0.1,CTS,Benzo(a)acridine,"Farrell and Newton, 1966"
 225-51-4,, C,8.1 ¡À 0.1,CTS,Benz[c]acridine,"Farrell and Newton, 1966"
 24151-56-2,, C,8.4 ¡À 0.1,EI,"Rhodium, dicarbonyl(1,3-diphenyl-1,3-propanedionato-o,o')-","Bonati, Distefano, et al., 1971"
 21485-21-2,, C,7.85 ¡À 0.05,EI,Tri-n-butylphosphite-p-tungsten pentacarbonyl,"Distefano, Innorta, et al., 1968"
 21485-22-3,, C,7.71 ¡À 0.05,EI,Tributylphosphite molybdenum pentacarbonyl,"Distefano, Innorta, et al., 1968"
 15680-62-3,, C,7.51 ¡À 0.05,EI,Tributylphosphinemolybdenum pentacarbonyl,"Distefano, Innorta, et al., 1968"
 17000-19-0,RDSH, C,7.63 ¡À 0.05,EI,"Tungsten, pentacarbonyl(tributylphosphine)-","Distefano, Innorta, et al., 1968"
 18497-59-1,RDSH, C,7.37 ¡À 0.05,EI,"Chromium, pentacarbonyl(tributylphosphine)-","Distefano, Innorta, et al., 1968"
 50-53-3,LLK, C,8.25 ¡À 0.07,CTS,Chlorpromazine,"Poltorakov, Pirnazarova, et al., 1973"
 36189-45-4,, C,8.5,EI,"7H-Benz[de]anthracene-7-one, 3-iodo-","Abliz, Ueda, et al., 1990"
 81-96-9,, C,8.5,EI,3-Bromobenzanthrone,"Abliz, Ueda, et al., 1990"
 59788-15-7,Vertical value, C,7.15,PE,"2H-Dibenz[e,g]isoindole,2-methyl-","Rettig and Wirz, 1976"
 64000-97-1,Vertical value, C,7.67,PE,16-Azatricyclo[9.2.2.1,"Reingold, Schmidt, et al., 1979"
 69372-72-1,Vertical value, C,7.27,PE,"Rhodium, 2,2,6,6-tetramethylheptan-3,5-dionato-o,o')-bis¦Ç","Van Dam, Terpstra, et al., 1980"
 3576-45-2,, C,8.24 ¡À 0.07,CTS,"10H-Phenothiazine,2-chloro-10-[3-(dimethylamino)-1-oxopropyl]-","Poltorakov, Pirnazarova, et al., 1973"
 20336-15-6,Vertical value; , C,8.6,PE,"Pyridine, 2,4,6-tris(1,1-dimethylethyl)-","Heilbronner, Hornung, et al., 1972"
 17420-29-0,Vertical value, C,8,PE,"Phosphorin, 2,4,6-tris(1,1-dimethylethyl)-","Oehling, Schafer, et al., 1971"
 24833-58-7,Vertical value, C,7.54,PE,"Platinum, chlorobis(dimethylphenylphosphine)methyl-","Behan, Johnstone, et al., 1978"
 24833-62-3,Vertical value, C,7.43,PE,"Platinum,bromobis(dimethylphenylphosphine)methyl-","Behan, Johnstone, et al., 1978"
 24882-77-7,Vertical value, C,7.12,PE,"Platinum,bis(dimethylphenylphosphine)iodomethyl-(sp-4-3)-","Behan, Johnstone, et al., 1978"
 33021-47-5,LBLHLM, C,11.3,PE,"1,1,2,2,3,3,4,4,5,5,6,6,7,7,8,8,9,9,-Octadecafluoro-2,3,4,5,6,7,8,9-octahydro-1H-trindene","Heilbronner, Wirz, et al., 1984"
 38446-43-4,, C,7.85,CTS,"Trisilane,1,1,1,2,3,3,3-heptamethyl-2-)(1-naphthalenyl)-","Pitt, Carey, et al., 1972"
 38446-42-3,, C,7.93,CTS,"Trisilane,1,1,1,2,2,3,3-heptamethyl-3-(1-naphthalenyl)-","Pitt, Carey, et al., 1972"
 86560-61-4, , C,7.5,PE,"1,2,4,5-Tetraphosphaspiro[2.2]pentane, 1,2,4,5-tetrakis(1,1-dimethylethyl)-","Gleiter, Uschmann, et al., 1986"
 107053-23-6,Vertical value, C,7.09 ¡À 0.02,PE,"Molybdenum, [1,2-ethanediolato(2-)-o,o'-)oxo[tris(3,5-dimethyl-1H-pyrazolato-N')hydroborato(1-)-N","Chang, Rai-Chaudhuri, et al., 1990"
 2234-14-2,LLK, C,8,PE,"2,4,6-Tri-isopropylacetophenone","Centineo, Fragala, et al., 1978"
 102829-38-9,Vertical value, C,6.69 ¡À 0.02,PE,"Molybdenum, dimethoxy-oxo[tris(3,5-dimethyl-1H-pyrazolato-N')hydroborato(1-)-N","Chang, Rai-Chaudhuri, et al., 1990"
 35449-08-2,, C,8.22 ¡À 0.04,EI,"(¦Á,¦Á,¦Á-Tris(trimethylsilyl)ethylbenzene","Bock, Seidl, et al., 1968"
 87424-91-7,Vertical value, C,8.68,PE,"1,4:5,8:9,10-Trimethanoanthracene, 1,2,3,4,4a,5,8,8a,9,9a,10,10a-dodecahydro-(1¦Á,4¦Á,4a¦Á,5¦Â,8¦Â8a¦Á,9.beta,9a¦Á,10¦Â,10a¦Á)-","Jorgensen, Paddon-Row, et al., 1983"
 90219-29-7, , C,6.6,PE,"Ruthenium, ¦Ì-carbonyltetracarbonyl[¦Ì-[¦Ç","Casarin, Vittadini, et al., 1988"
 607-55-6,, C,7.81,PI,"1-Naphthalenol, benzoate","Orlov, Ponomarev, et al., 1991"
 93-44-7,, C,7.82,PI,2-Naphthyl benzoate,"Orlov, Ponomarev, et al., 1991"
 38717-96-3,Vertical value, C,7.55,PE,"Methanone,1-azulenylphenyl-","Dougherty, Lewis, et al., 1980"
 642-29-5,Vertical value, C,8.03,PE,benzoylnaphthalene,"Traven, Safronov, et al., 1991"
 2844-17-9,Vertical value; , C,7.31,PE,"Benzonitrile, 4-[2-[4-(dimethylamino)phenyl]ethenyl]-, (E)-","Cauletti, Furlani, et al., 1985"
 3576-44-1,, C,8.26 ¡À 0.07,CTS,"10H-Phenothiazine,10-[3-(dimethylamino)-1-oxopropyl]-","Poltorakov, Pirnazarova, et al., 1973"
 82-05-3,, C,8,PE,7H-Benz[de]anthracen-7-one,"Traven, Safronov, et al., 1991"
 52457-25-7,Vertical value, C,7.55,PE,"1,4-Methanoanthracene,1,4-dihydro-9,10-dimethoxy-","Paquette, Bellamy, et al., 1980"
 69454-53-1,Vertical value, C,8.03 ¡À 0.04,PE,"1H-Phenalen-1-one,9-butoxy-","Carnovale, Gan, et al., 1979"
 41169-42-0,Vertical value, C,9.0 ¡À 0.05,PE,"1,3-Propanedione,2,2-dimethyl-1,3-diphenyl-","McAlduff and Bunbury, 1979"
 82823-46-9, , C,7.8,PE,"Spiro[1,3-benzodioxole-2,2'-naphtho[2,3-d][1,3]dioxole","Gleiter and Uschmann, 1986"
 25730-47-6,Vertical value, C,7.57,PE,"[1,2]Dithiolo[1,5-b][1,2]dithiole-7-s(iv),3,4-diphenyl-","Gleiter, Hornung, et al., 1971"
 1033-90-5,, C,7.39,EI,"[1,2]Dithiolo[1,5-b][1,2]dithiole-7-SIV, 2,5-diphenyl-","Johnstone and Ward, 1969"
 32589-54-1,, C,7.70 ¡À 0.05,EI,"Cyclopropanecarbonitrile, 1-(p-chlorophenyl)-2-(p-methoxyphenyl)-","Lageot, 1971"
 39787-00-3,Vertical value, C,7.83 ¡À 0.03,PE,"8H-Cyclohepta[b]naphthalen-8-one,7,9-dimethyl-","Allan, Heilbronner, et al., 1975"
 7576-36-5,Vertical value, C,7.82,PE,"2-Cyclopropene-1-carboxylic acid, 2,3-diphenyl-, methyl ester","Baidin, Domnin, et al., 1984"
 613-62-7,, C,7.82,CTS,"Naphthalene, 2-(phenylmethoxy)-","Weschke, Timpe, et al., 1979"
 607-58-9,, C,7.63,CTS,"Naphthalene, 1-(phenylmethoxy)-","Weschke, Timpe, et al., 1979"
 41273-54-5,, C,7.94 ¡À 0.01,EI,"Silane,(2,3-dihydro-1H-inden-1-yl)dimethylphenyl-","Rakita, Hoffman, et al., 1973"
 38801-41-1,Vertical value, C,7.15 ¡À 0.03,PE,"10b,10c-Methanoazuleno[2,1,8-ija]azulene","Batich, Heilbronner, et al., 1974"
 165-42-4,Vertical value, C,7.8,PE,"1,1'-Spirobi[1H-indene]","Schweig, Weidner, et al., 1973"
 32137-40-9,LBLHLM, C,7.53,PE,"Naphtho[1,8',8:c,d]cyclodeca-1,5-diiyne","Gleiter, Schafer, et al., 1984"