CAS,Comment,Formula,IE,Method,Name,Refer
 926-55-6,LLK, C,8.72 ¡À 0.01,PE,"1-Penten-3-yne, 2-methyl-","Carlier, Mouvier, et al., 1979"
 33755-64-5,Vertical value; , C,8.56,PE,"1,3,4-Hexatriene","Delwiche, Praet, et al., 1979"
 71153-32-7, , C,8.7,PE,Spirohex-1-ene,"Plemenkov, Villem, et al., 1981"
 930-26-7,LLK, C,8.4,PE,3-Methylenecyclopentene,"Bruckmann and Klessinger, 1974"
 26519-91-5,Vertical value, C,8.28 ¡À 0.05,PE,Methylcyclopentadiene,"Evans, Green, et al., 1972"
 2045-78-5,LLK, C,8.7,PE,"1,3-Bis(methylene)cyclobutane","Hemmersbach, Klessinger, et al., 1978"
 20130-95-4,Vertical value; , C,8.32,PE,"(E)-1,2,4-Hexatriene","Delwiche, Praet, et al., 1979"
 11121-63-4,, C,7.65 ¡À 0.08,PI,"Ferrocene, decachloro-","Barfuss, Emrich, et al., 1990"
 14763-81-6,Vertical value; , C,8.54,PE,"4-Methyl-1,2,4-pentatriene","Delwiche, Praet, et al., 1979"
 13682-02-5,LBLHLM, C,7.9,PE,"Cobalt, nonacarbonyl[¦Ì","Granozzi, Tondello, et al., 1982"
 16393-88-7,LBLHLM, C,8.39,PE,"Stannane, trimethyl-(trimethylsilyl)-","Mochida, Worley, et al., 1985"
 61667-33-2,Vertical value; , C,9.59,PE,"Cyclopent-3-ene, 1,1-dimethoxy-1-sila-","Khvostenko, Zykov, et al., 1981"
 33664-21-0,, C,9.8 ¡À 0.05,PE,"1,3,5,7-Tetrasilatricyclo[3.3.1.1","Schmidt, Wilkins, et al., 1973"
 636-28-2, , C,8.65,PE,"Benzene, 1,2,4,5-tetrabromo-","Kimura, Katsumata, et al., 1981"
 2368-53-8,, C,9.37 ¡À 0.02,PE,"1,3-Dichloro-2,4,6-trifluorobenzene","Mohraz, Maier, et al., 1980"
 1835-61-6,, C,9.58 ¡À 0.02,PE,"1-Chloro-2,3,5,6-tetrafluorobenzene","Mohraz, Maier, et al., 1980"
 95-92-1, , C,9.8,PE,"Ethanedioic acid, diethyl ester","McGlynn and Meeks, 1976"
 4362-05-4, , C,8.5,PE,"[1,4]Dioxino[2,3-b]-1,4-dioxin, hexahydro-","Jorgensen, Norskov-Lauritsen, et al., 1981"
 1450-14-2,T = 298K; , C,8.27 ¡À 0.05,PIPECO,"Disilane, hexamethyl-","Szepes and Baer, 1984"
 142-62-1,LLK, C,¡Ü10.12,EI,Hexanoic acid,"Holmes, Fingas, et al., 1981"
 123-86-4,LLK, C,9.92 ¡À 0.05,PE,"Acetic acid, butyl ester","Benoit, Harrison, et al., 1977"
 110-19-0,, C,9.97,PI,Isobutyl acetate,"Watanabe, Nakayama, et al., 1962"
 106-36-5,Vertical value, C,9.96,PE,"Propanoic acid, propyl ester","Benoit and Harrison, 1977"
 624-24-8,RDSH, C,10.4 ¡À 0.2,EI,Methyl valerate,"Howe, Williams, et al., 1969"
 105-46-4,LBLHLM, C,9.9,PIPECO,sec-Butyl acetate,"Green, McCluskey, et al., 1982"
 598-98-1,LLK, C,9.90 ¡À 0.04,PE,"Propanoic acid, 2,2-dimethyl-, methyl ester","Miller, Koch, et al., 1973"
 766-20-1,Vertical value; , C,9.9,PE,"1,3-Dioxane, 2,4-dimethyl-","Asfandiarov and Zykov, 1983"
 695-30-7,Vertical value; , C,9.84,PE,"1,3-Dioxane, 2,2-dimethyl-","Asfandiarov and Zykov, 1983"
 766-15-4,Vertical value; , C,9.8,PE,"1,3-Dioxane, 4,4-dimethyl-","Asfandiarov and Zykov, 1983"
 6572-89-0,Vertical value; , C,9.29,PE,"1,2-Dioxocane","Coughlin, Brown, et al., 1979"
 35856-82-7,LLK, C,9.26 ¡À 0.03,PI,"1,2-Dioxetane,3,3,4,4-tetramethyl-","Trott, Blais, et al., 1978"
 2678-54-8,Vertical value, C,8.3,PE,"Ethene, 1,1-diethoxy-","Bock, Wagner, et al., 1974"
 7429-45-0,Vertical value, C,9.6,PE,"Cyclopentanol,2-methoxy-,trans-","Brown, 1976"
 13051-91-7,Vertical value, C,9.8,PE,"Cyclopentanol,2-methoxy-,cis-","Brown, 1976"
 2691-93-2,, C,9.20 ¡À 0.02,PE,"Benzene,1,2,3,4-tetrachloro-5-fluoro-","Mohraz, Maier, et al., 1980"
 319-97-1,, C,9.19 ¡À 0.02,PE,"Benzene,1,2,4,5-tetrachloro-3-fluoro-","Mohraz, Maier, et al., 1980"
 105-57-7, , C,9.2,PE,"Ethane, 1,1-diethoxy-","Zverev, Villem, et al., 1982"
 327-52-6,, C,9.25 ¡À 0.02,PE,"Benzene, 1-bromo-2,4,5-trifluoro-","Mohraz, Maier, et al., 1980"
 2367-76-2,, C,9.34 ¡À 0.02,PE,"1-Bromo-2,4,6-trifluorobenzene","Mohraz, Maier, et al., 1980"
 4312-76-9,LLK, C,9.47 ¡À 0.03,PE,"Hydroperoxide, hexyl","Ashmore and Burgess, 1977"
 24254-55-5,LLK, C,9.25 ¡À 0.03,PE,"Hydroperoxide, 1-methylpentyl","Ashmore and Burgess, 1977"
 16642-57-2,Vertical value; , C,9.16,PE,"Peroxide, bis(1-methylethyl)","Coughlin, Brown, et al., 1979"
 623-70-1,Vertical value; , C,10.11,PE,"2-Butenoic acid, ethyl ester, (E)-","Sustmann and Trill, 1972"
 106-92-3, , C,9.3,PE,"Oxirane, [(2-propenyloxy)methyl]-","Rodin, Chistyakov, et al., 1985"
 815-57-6,Vertical value, C,8.55,PE,"2,4-Pentanedione, 3-methyl-","Schweig, Vermeer, et al., 1974"
 533-60-8,Vertical value, C,9.7,PE,"Cyclohexanone, 2-hydroxy-","Brown, 1976"
 280-53-5,Vertical value, C,8.83,PE,"2,3-Dioxabicyclo[2.2.2]octane","Gleiter, Schang, et al., 1980"
 51272-66-3,LBLHLM, C,8.6,PE,"6,7-Dioxabicyclo[3.2.1]octane","Gleiter, Dobler, et al., 1984"
 608-93-5,LLK, C,8.8,PE,"Benzene, pentachloro-","Ruscic, Klasinc, et al., 1981"
 52646-68-1,Vertical value, C,8.74,PE,"Iron, tetracarbonyl(¦Ç2-1,2-dibromoethene)-, stereoisomer","Van Dam and Oskam, 1979"
 505-57-7,LLK, C,9.65,PE,2-Hexenal,"Masclet and Mouvier, 1978"
 108-94-1,LLK, C,9.18,PE,Cyclohexanone,"Loudet, Grimaud, et al., 1976"
 141-79-7,LLK, C,9.11,PE,"3-Penten-2-one, 4-methyl-","Masclet and Mouvier, 1978"
 13271-68-6,Vertical value; , C,8.62,PE,2-Furyl-dimethylsilane,"Zykov, Erchak, et al., 1983"
 25121-86-2,Vertical value, C,8.19,PE,"Thieno[2,3-b]thiophene,2,5-dibromo-","Coustale, Guimon, et al., 1976"
 53255-78-0,Vertical value, C,8.3,PE,"Thieno[2,3-b]thiophene,3,4-dibromo-","Coustale, Guimon, et al., 1976"
 64695-78-9,, C,9.13 ¡À 0.02,PE,"1,2-Dibromo-4,5-difluorobenzene","Mohraz, Maier, et al., 1980"
 327-51-5,, C,9.09 ¡À 0.02,PE,"1,4-Dibromo-2,5-difluorobenzene","Mohraz, Maier, et al., 1980"
 4253-91-2,Vertical value; , C,8.6,PE,Dipropyl sulfoxide,"Bock and Solouki, 1974"
 2211-89-4,LLK, C,8.54 ¡À 0.08,EI,Diisopropyl sulfoxide,"Potzinger, Stracke, et al., 1975"
 55860-10-1,, C,8.55 ¡À 0.05,EI,"Butane, 3-methyl-1-(methylsulfinyl)-","Potzinger, Stracke, et al., 1975"
 284-22-0,Vertical value, C,9.61 ¡À 0.03,PE,"7,8,9-Trioxabicyclo[4.2.1]nonane","Brown and Marcinko, 1978"
 60887-86-7,LLK, C,8.15,PE,4-Methylthio-3-penten-2-one,"Jorgensen, Carlsen, et al., 1981"
 2422-95-9, , C,8.4,PE,"Oxirane, [(2-propenyloxy)methyl)-","Rodin, Chistyakov, et al., 1985"
 623-36-9,LLK, C,9.54,PE,"2-Pentenal, 2-methyl-","Masclet and Mouvier, 1978"
 286-20-4,LBLHLM, C,9.82,EI,7-Oxabicyclo[4.1.0]heptane,"Alai and Rye, 1984"
 109-49-9,Vertical value; , C,9.5,PE,5-Hexen-2-one,"Schweig, Vermeer, et al., 1974"
 77-75-8,Vertical value, C,10.03,PE,"1-Pentyn-3-ol, 3-methyl-","Andreocci, Bitchev, et al., 1979"
 2497-21-4,LLK, C,9.32,PE,4-Hexen-3-one,"Masclet and Mouvier, 1978"
 279-49-2,Vertical value; , C,9.57 ¡À 0.02,PE,7-Oxabicyclo[2.2.1]heptane,"Bain, Bunzli, et al., 1973"
 19780-25-7,LLK, C,9.53,PE,"2-Butenal, 2-ethyl-","Masclet and Mouvier, 1978"
 1606-47-9,LLK, C,9.39,PE,"1-Penten-3-one, 4-methyl-","Masclet and Mouvier, 1978"
 565-62-8,LLK, C,9.35,PE,"3-Penten-2-one, 3-methyl-","Masclet and Mouvier, 1978"
 24264-08-2,, C,8.24,EI,"1-Buten-1-one, 2-ethyl-","Compernolle and DeSchryver, 1975"
 1567-75-5,Vertical value, C,9.3,PE,Methyl 1-methylcyclopropyl ketone,"Al-Khafaji and Shanshal, 1977"
 16302-35-5,, C,8.88,EI,"3,6-dihydro-4-methyl-2H-pyran","Alai and Rye, 1984"
 930-56-3,Vertical value, C,9.38,PE,"Ethanone, 1-(2-methylcyclopropyl)-","Al-Khafaji and Shanshal, 1977"
 16015-11-5,Vertical value, C,8.4,PE,"2H-Pyran, 3,4-dihydro-6-methyl-","Batich, Heilbronner, et al., 1976"
 40955-64-4,Vertical value, C,9.12 ¡À 0.03,PE,"Cyclopentene, 4-methoxy-","Neijzen, Schmitz, et al., 1975"
 39819-74-4,Vertical value, C,9.45 ¡À 0.05,PE,"Cyclopentene,3-methoxy-","McAlduff, Caramella, et al., 1978"
 628-80-8,Vertical value, C,9.67,PE,"Pentane, 1-methoxy-","Bachiri, Mouvier, et al., 1980"
 623-37-0,LLK, C,9.63 ¡À 0.03,PE,3-Hexanol,"Ashmore and Burgess, 1977"
 108-20-3,RDSH, C,9.16 ¡À 0.05,EI,Diisopropyl ether,"Williams and Hamill, 1968"
 626-93-7,LLK, C,9.80 ¡À 0.03,PE,2-Hexanol,"Ashmore and Burgess, 1977"
 637-92-3,Vertical value; , C,9.39 ¡À 0.015,PE,"Propane, 2-ethoxy-2-methyl-","Klessinger, Asmus, et al., 1975"
 111-43-3,LLK, C,9.32 ¡À 0.01,PE,Di-n-propyl ether,"Cocksey, Eland, et al., 1971"
 111-27-3,LLK, C,9.89,PE,1-Hexanol,"Ashmore and Burgess, 1977"
 358-37-2,, C,10.78,PE,"n-Butyl-1,1,2,2-tetrafluoroethyl ether","Molder, Pikver, et al., 1983"
 111-96-6,Vertical value; , C,9.8,PE,"Ethane, 1,1'-oxybis[2-methoxy-","Baker, Armen, et al., 1983"
 628-81-9,LBLHLM, C,9.3 ¡À 0.1,EI,"Butane, 1-ethoxy-","Audier, Bouchoux, et al., 1982"
 627-02-1,LBLHLM, C,9.3 ¡À 0.1,EI,"Propane, 1-ethoxy-2-methyl-","Audier, Bouchoux, et al., 1982"
 2679-87-0,LBLHLM, C,9.2 ¡À 0.1,EI,"Butane, 2-ethoxy-","Audier, Bouchoux, et al., 1982"
 1118-00-9,LL, C,9.30 ¡À 0.05,EI,"Propane, 1-methoxy-2,2-dimethyl-","Bissonnette, George, et al., 1990"
 626-91-5,Vertical value, C,¡Ü9.65,PE,"Butane, 1-methoxy-3-methyl-","Bachiri, Mouvier, et al., 1980"
 37826-18-9,, C,7.6,PE,"Diselenide, bis(1-methylethyl)-","Hirabayashi, Mohmand, et al., 1982"
 32799-25-0,Vertical value; , C,8.38,PE,¦Ç,"Van Dam and Oskam, 1979"
 64501-17-3,Vertical value, C,7.82,PE,"Tellurium, dipropyl-","Sinegovskaya, Tatarinova, et al., 1991"
 51112-72-2,Vertical value, C,7.56,PE,"Tellurium, bis(1-methylethyl)-","Sinegovskaya, Tatarinova, et al., 1991"
 22452-26-2,, C,8.67 ¡À 0.01,EI,"1,3-Oxathiane, 4,6-dimethyl-, trans-","Jalonen, Pasanen, et al., 1973"
 22452-25-1,, C,8.75,EI,"1,3-Oxathiane, 4,6-dimethyl-, cis-","Jalonen, Pasanen, et al., 1973"
 32574-16-6,Vertical value, C,10.4,PE,Propionic acid dimer,"Thomas, 1972"
 5614-37-9,Vertical value, C,9.40 ¡À 0.03,PE,"Cyclopentane,methoxy-","Neijzen, Schmitz, et al., 1975"
 66-25-1,LLK, C,9.8,EI,Hexanal,"Morgan, Derrick, et al., 1980"
 591-78-6,LLK, C,9.24 ¡À 0.02,PE,2-Hexanone,"Ashmore and Burgess, 1978"
 589-38-8,LLK, C,9.3,EI,3-Hexanone,"Holmes, Fingas, et al., 1981"
 108-10-1,LLK, C,9.296 ¡À 0.005,PE,Methyl Isobutyl Ketone,"Hernandez, Masclet, et al., 1977"
 75-97-8,LBLHLM, C,9.4,EI,"2-Butanone, 3,3-dimethyl-","Dommrose and Grutzmacher, 1987"
 108-93-0,LBLHLM, C,9.75,EI,Cyclohexanol,"Rabbih and Selim, 1983"
 565-61-7,LBLHLM, C,9.20 ¡À 0.05,EI,"2-Pentanone, 3-methyl-","Bouchoux, Flammang, et al., 1984"
 97-96-1,LLK, C,9.54,EI,"Butanal, 2-ethyl-","Holmes, Fingas, et al., 1981"
 565-69-5,LLK, C,9.098 ¡À 0.005,PE,"3-Pentanone, 2-methyl-","Hernandez, Masclet, et al., 1977"
 38198-81-1,Vertical value, C,9.7 ¡À 0.1,PE,"2,8,9-Trioxa-5-aza-1-silabicyclo[3.3.3]undecane, 1-fluoro-","Peel and Dianxum, 1988"
 123-15-9,, C,9.7,EI,"Pentanal, 2-methyl-","Morgan, Derrick, et al., 1980"
 15877-57-3,LLK, C,9.68,EI,"Pentanal, 3-methyl-","Holmes, Fingas, et al., 1981"
 592-90-5,LL, C,9.15 ¡À 0.05,EI,Oxepane,"Holmes and Lossing, 1991"
 2987-16-8,LLK, C,9.610 ¡À 0.005,PE,"Butanal, 3,3-dimethyl-","Hernandez, Masclet, et al., 1977"
 1119-16-0,, C,9.8,EI,4-methylpentanal,"Morgan, Derrick, et al., 1980"
 2245-30-9,Vertical value, C,10.04 ¡À 0.05,PE,"3,3-Dimethyl-1,2-epoxybutane","Block, Yencha, et al., 1988"
 10519-87-6,Vertical value, C,9.8,PE,Divinyldimethylsilane,"Schweig, Weidner, et al., 1973"
 16054-12-9,Vertical value; , C,9,PE,"1,1-Dimethyl-1-silacyclo-3-pentene","Khvostenko, Zykov, et al., 1981"
 13361-64-3,, C,9.04 ¡À 0.04,EI,"Silane, trimethyl-2-propynyl-","Bock and Seidl, 1968"
 18187-50-3,Vertical value, C,9.27 ¡À 0.03,PE,"Silacyclopent-2-ene,1,1-dimethyl-","Guimon, Pfister-Guillouzo, et al., 1978"
 769-39-1,Vertical value; , C,9.40 ¡À 0.02,PE,"2,3,5,6-Tetrafluorophenol","Maier, Marthaler, et al., 1980"
 18853-40-2,Vertical value; , C,9.76,PE,"2,5-Dicyanothiophene","Bock and Roth, 1983"
 18853-32-2,Vertical value; , C,10.2,PE,"3,4-Dicyanothiophene","Bock and Roth, 1983"
 629-19-6,Vertical value; , C,8.62,PE,"Disulfide, dipropyl","Wagner and Bock, 1974"
 400-04-4,, C,9.16 ¡À 0.02,PE,"1,2,4-trichloro-5-fluorobenzene","Mohraz, Maier, et al., 1980"
 36556-33-9,, C,9.23 ¡À 0.02,PE,"Benzene,1,3,5-trichloro-2-fluoro-","Mohraz, Maier, et al., 1980"
 3107-20-8,, C,9.24 ¡À 0.02,PE,"Benzene,2,3,5-trichloro-1-fluoro-","Mohraz, Maier, et al., 1980"
 36556-36-2,, C,9.20 ¡À 0.02,PE,"Benzene,1,2,3-trichloro-4-fluoro-","Mohraz, Maier, et al., 1980"
 4253-89-8,LBLHLM, C,8,PE,"Disulfide, bis(1-methylethyl)","Hirabayashi, Mohmand, et al., 1982"
 4151-69-3,, C,8.2 ¡À 0.8,EI,"Disulfide, 1,1-dimethylethyl ethyl","Hawari, Griller, et al., 1986"
 327-54-8,LLK, C,9.2,PE,"Benzene, 1,2,4,5-tetrafluoro-","Maier and Thommen, 1981"
 2367-82-0,LLK, C,9.531 ¡À 0.004,EQ,"Benzene, 1,2,3,5-tetrafluoro-","Lias and Ausloos, 1978"
 551-62-2,LLK, C,9.6,PE,"Benzene, 1,2,3,4-tetrafluoro-","Sell, Mintz, et al., 1978"
 111-47-7,RDSH, C,8.45 ¡À 0.05,EI,Propyl sulfide,"Khvostenko and Furlei, 1968"
 634-66-2,LLK, C,8.9,PE,"Benzene, 1,2,3,4-tetrachloro-","Ruscic, Klasinc, et al., 1981"
 95-94-3,LLK, C,8.9,PE,"Benzene, 1,2,4,5-tetrachloro-","Ruscic, Klasinc, et al., 1981"
 634-90-2,LLK, C,9.02,PE,"Benzene, 1,2,3,5-tetrachloro-","Ruscic, Klasinc, et al., 1981"
 39153-73-6,, C,9.39 ¡À 0.02,PE,"Benzene,2-chloro-1,3,4-trifluoro-","Mohraz, Maier, et al., 1980"
 36556-42-0,, C,9.42 ¡À 0.02,PE,"Benzene,1-chloro-2,3,4-trifluoro-","Mohraz, Maier, et al., 1980"
 615-93-0,LLK, C,10.24 ¡À 0.03,PI,"2,5-Cyclohexadiene-1,4-dione, 2,5-dichloro-","Kotov and Potapov, 1972"
 2367-78-4,, C,9.27 ¡À 0.02,PE,"Benzene,1-chloro-2,4,5-trifluoro-","Mohraz, Maier, et al., 1980"
 87-87-6,, C,8.30 ¡À 0.05,PI,"Hydroquinone, tetrachloro-","Potapov, Kardash, et al., 1972"
 36556-39-5,, C,9.33 ¡À 0.02,PE,"Benzene, 1,2-dichloro-3,4-difluoro-","Mohraz, Maier, et al., 1980"
 36556-37-3,, C,9.27 ¡À 0.02,PE,"Benzene,1,3-dichloro-2,4-difluoro-","Mohraz, Maier, et al., 1980"
 36556-54-4,, C,9.32 ¡À 0.02,PE,"Benzene,2,3-dichloro-1,4-difluoro-","Mohraz, Maier, et al., 1980"
 2367-80-8,, C,9.32 ¡À 0.02,PE,"Benzene,1,3-dichloro-2,5-difluoro-","Mohraz, Maier, et al., 1980"
 400-05-5,, C,9.17 ¡À 0.02,PE,"Benzene,1,4-dichloro-2,5-difluoro-","Mohraz, Maier, et al., 1980"
 52613-75-9,Vertical value, C,8.82,PE,"Iron, tetracarbonyl(¦Ç","Van Dam and Oskam, 1979"
 52646-80-7,Vertical value, C,8.72,PE,"Iron, tetracarbonyl(¦Ç","Van Dam and Oskam, 1979"
 24634-93-3,, C,9.6 ¡À 0.2,EI,"1,3-Cyclohexadien-5-yne,2,3-dichloro-","Grutzmacher and Hubner, 1969"
 24634-94-4,, C,10. ¡À 0.2,EI,"1,3-Cyclohexadien-5-yne,1,3-dichloro-","Grutzmacher and Hubner, 1969"
 625-80-9,LBLHLM, C,8,PE,Diisopropyl sulfide,"Hirabayashi, Mohmand, et al., 1982"
 24634-92-2,, C,9.7 ¡À 0.2,EI,"1,3-Cyclohexadien-5-yne,1,2-dichloro-","Grutzmacher and Hubner, 1969"
 73513-56-1,, C,9.1 ¡À 0.2,EI,"1,3-Cyclohexadien-5-yne,1,4-dichloro-","Grutzmacher and Hubner, 1969"
 6079-57-8,Vertical value, C,8.46 ¡À 0.05,PE,"Methyl (2,2-dimethylpropyl) sulfide","Block, Yencha, et al., 1988"
 67517-57-1, , C,7.6,PE,"Iron, hexacarbonyl[¦Ç-[hexahydrodiborato(2-)]]di-, (fe-fe)","Andersen, DeKock, et al., 1981"
 771-60-8,LLK, C,8.40 ¡À 0.02,PE,"Benzenamine, 2,3,4,5,6-pentafluoro-","Maier and Turner, 1973"
 61332-91-0,, C,6.3 ¡À 0.5,EI,Benzenevanadium,"Muller and Goser, 1968"
 75899-43-3,LLK, C,7.9,PE,"1H-Imidazole,4-methyl-5-[(methylthio)methyl]-","Klasinc, Butkovic, et al., 1980"
 66187-19-7,Vertical value, C,7.6,PE,"3H-Pyrazole-3-thione,1,2-dihydro-1,2,4-trimethyl-","Guimon, Pfister-Guillouzo, et al., 1978"
 78134-03-9,Vertical value; , C,7.82,PE,"N,N'-Dimethyl hexahydropyrazine-2,3-dithione","Henriksen, Isaksson, et al., 1981"
 3310-62-1,LL, C,7.95,PE,"2,3-Diazabicyclo[2.2.2]oct-2-ene","Engel, Gerth, et al., 1988"
 25926-96-9,Vertical value; , C,9.30 ¡À 0.03,PE,"2,3-Diazabicyclo[2.2.2]oct-2-ene,2-oxide","Bunzli, Olsen, et al., 1977"
 36479-80-8,, C,8.04 ¡À 0.03,PE,"2,3-Diazabicyclo[2.2.2]oct-2-ene 2,3-dioxide","Bunzli, Olsen, et al., 1977"
 14296-14-1,Vertical value, C,9.55,PE,"Cyclohexane,1-nitro-1-nitroso-","Egdell, Green, et al., 1975"
 765-71-9,Vertical value, C,7.44,PE,"Pyrrole, 2,5-dimethyl-N-amino-","Zverev, 1992"
 80201-75-8,Vertical value, C,8.84,PE,Dicyclopropyldiazene,"Engel, Gerth, et al., 1988"
 58258-49-4, , C,7.7,PE,"1,3,5-Triselena-2,4,6-tristannacyclohexane, 2,2,4,4,6,6-hexamethyl-","Cauletti, Grandinetti, et al., 1988"
 20718-55-2,Vertical value, C,7.83,PE,"[1,2]Dithiolo[1,5-b][1,2]dithiole-7-s(iv),2-methyl-","Gleiter, Hornung, et al., 1971"
 7262-34-2, , C,7.8,PE,Hexamethyldistannaselenane,"Cauletti, Grandinetti, et al., 1988"
 51422-74-3, , C,10.04 ¡À 0.02,PE,"Cyclohexane, 1-bromo-2-fluoro-, cis-","Botter, Menes, et al., 1973"
 7429-37-0,LLK, C,10.02 ¡À 0.02,PE,"Cyclohexane,1,2-dibromo-,trans-","Botter, Menes, et al., 1973"
 19246-38-9,LLK, C,9.94 ¡À 0.02,PE,"Cyclohexane,1,2-dibromo-,cis-","Botter, Menes, et al., 1973"
 59403-01-9,Vertical value, C,8.66,PE,"Acetamide, N-1,3-butadienyl-2,2,2-trichloro-, (E)-","Overman, Taylor, et al., 1978"
 116061-70-2,, C,8.81 ¡À 0.03,PI,"1,2,4-Triazolo[5,1-c][1,2,4]triazine, 4,7-dihydro-6-nitro-7-oxo-2,3-dimethyl-","Rusinov, Ulomskii, et al., 1992"
 116061-63-3,, C,9.12 ¡À 0.03,PI,"1,2,4-Triazolo[5,1-c][1,2,4]triazine, 4,7-dihydro-6-nitro-7-oxo-2,4-dimethyl-","Rusinov, Ulomskii, et al., 1992"
 116061-64-4,, C,8.72 ¡À 0.03,PI,"1,2,4-Triazolo[5,1-c][1,2,4]triazine, 4,7-dihydro-6-nitro-7-oxo-4-methyl-2-methylthio-","Rusinov, Ulomskii, et al., 1992"
 51422-75-4,, C,10.03 ¡À 0.02,PE,"Cyclohexane, 1-bromo-2-chloro-, cis-","Botter, Menes, et al., 1973"
 13898-96-9,, C,10.13 ¡À 0.02,PE,"Cyclohexane,1-bromo-2-chloro-,trans-","Botter, Menes, et al., 1973"
 17170-96-6, , C,10.18 ¡À 0.02,PE,"Cyclohexane, 1-bromo-2-fluoro-, trans-","Botter, Menes, et al., 1973"
 34122-54-8,Vertical value, C,8.54,PE,"7,8-Diazatetracyclo[3.3.0.0","Schmidt, Schweig, et al., 1974"
 99-09-2,LLK, C,8.31 ¡À 0.02,PI,m-Nitroaniline,"Potapov, Kardash, et al., 1972"
 88-74-4,LLK, C,8.27 ¡À 0.01,PI,o-Nitroaniline,"Potapov, Kardash, et al., 1972"
 100-01-6,LLK, C,8.43,EI,p-Nitroaniline,"Johnstone and Mellon, 1973"
 4377-73-5,LLK, C,9.36 ¡À 0.03,PI,p-Benzoquinone diimine,"Potapov, Kardash, et al., 1972"
 98-92-0,LLK, C,9.18,PE,Niacinamide,"Dougherty, Younathan, et al., 1978"
 2004-03-7,LLK, C,8.9,PE,"1H-Purine, 6-methyl-","Lin, Yu, et al., 1980"
 20427-22-9,Vertical value, C,9.4,PE,"9H-purine, 9-methyl","Lin, Yu, et al., 1980"
 18346-04-8,Vertical value, C,9.4,PE,"7H-Purine, 7-methyl-","Lin, Yu, et al., 1980"
 370-69-4,Vertical value; , C,10.37,PE,"Ethanol, 2,2,2-trifluoro-, phosphite (3:1)","Zverev, Sinyashina, et al., 1990"
 762-42-5,Vertical value, C,10.9,PE,"2-Butynedioic acid, dimethyl ester","Sustmann and Trill, 1972"
 62782-96-1, , C,8.1,PE,"3-Cyclobutene-1,2-dione, 3,4-bis(methylseleno-","Bock, Ried, et al., 1981"
 54131-97-4,Vertical value, C,8.49,PE,"3-Cyclobutene-1,2-dione, 3,4-bis(methylthio)-","Bock, Ried, et al., 1981"
 35246-23-2, , C,8.6 ¡À 0.1,EI,2-Tellurophenecarboxylic acid methyl ester,"Distefano, Pignataro, et al., 1973"
 5380-42-7, , C,9.22 ¡À 0.05,EI,Methyl-2-thiophene carboxylate,"Linda, Marino, et al., 1971"
 39697-33-1,Vertical value, C,9.05 ¡À 0.05,PE,2-Selenophenecarboxylic acid methyl ester,"Fringuelli, Marino, et al., 1976"
 371-40-4,RDSH, C,7.9 ¡À 0.1,CTS,p-Fluoroaniline,"Farrell and Newton, 1966"
 372-19-0,Vertical value; , C,8.33,PE,"Benzenamine, 3-fluoro-","Furin, Sultanov, et al., 1987"
 348-54-9,LLK, C,8.5,EI,"Benzenamine, 2-fluoro-","Baldwin, Loudon, et al., 1976"
 1192-62-7,LL, C,9.02,PE,"Ethanone, 1-(2-furanyl)-","Klapstein, MacPherson, et al., 1990"
 120-80-9,LLK, C,8.15,PE,"1,2-Benzenediol","Palmer, Moyes, et al., 1979"
 123-31-9,LBLHLM, C,7.93 ¡À 0.01,S,Hydroquinone,"Oikawa, Abe, et al., 1985"
 5222-73-1,Vertical value; , C,9.2,PE,"3,4-Dimethoxy-3-cyclobutene-1,2-dione","Gleiter, Schang, et al., 1978"
 108-46-3,LLK, C,8.2,PE,Resorcinol,"Palmer, Moyes, et al., 1979"
 104910-78-3, , C,9.1,PE,"Hexa-1,5-diene-3,4-dione","Buhl, Kramme, et al., 1991"
 4505-38-8,LBLHLM, C,9.77,PE,"1,4-Cyclohex-2-enedione","Gleiter, Jahne, et al., 1985"
 1121-15-9,Vertical value, C,9.06,PE,"3-Cyclobutene-1,2-dione, 3,4-dimethyl-","Schang, Gleiter, et al., 1978"
 29798-87-6,LLK, C,9.4,PE,"Bicyclo[3.1.0]hexan-2,4-dione","Beck, Hofmann, et al., 1981"
 15429-03-5,LBLHLM, C,8.72,PE,"Ethanone, 1-selenophene-2-yl-","Reineck, Nohre, et al., 1983"
 35273-65-5,, C,8.6 ¡À 0.1,EI,"Ethanone,1-tellurophene-2-yl-","Distefano, Pignataro, et al., 1973"