CAS,Comment,Formula,IE,Method,Name,Refer
 38463-58-0,, C,7.30 ¡À 0.02,EI,"4-Quinolinol,4-ethenyl-1-ethyldecahydro-2-methyl-(2¦Á,4¦Â,4a¦Á,8a¦Â)","Zaikin and Wulfson, 1978"
 54133-31-2,Vertical value, C,9.23,PE,"Cyclobutanone,3-(cyclohexylimino)-2,2,4,4-tetramethyl-","Behan, Johnstone, et al., 1977"
 38463-54-6,, C,7.33 ¡À 0.02,EI,"4-Quinolinol,1-ethyl-4-ethynyldecahydro-2-methyl-(2¦Á,4¦Á,4a¦Á,8a¦Â)","Zaikin and Wulfson, 1978"
 38463-56-8,, C,7.16 ¡À 0.02,EI,"4-Quinolinol,1-ethyl-4-ethynyldecahydro-2-methyl-(2¦Á,4¦Á,4a¦Â,8a¦Á)","Zaikin and Wulfson, 1978"
 1500-76-1,Vertical value; , C,7.75,PE,"5,5-Dimethyl-3-[N-cyclohexylamino]-cyclohex-2-en-1-one","Pfister-Guillouzo, Geribaldi, et al., 1982"
 38463-55-7,, C,7.28 ¡À 0.02,EI,"4-Quinolinol,1-ethyl-4-ethynyldecahydro-2-methyl-(2¦Á,4¦Â,4a¦Á,8a¦Â)","Zaikin and Wulfson, 1978"
 613-29-6,, C,6.95,CTS,"Benzenamine, N,N-dibutyl-","Farrell and Newton, 1965"
 81506-16-3,Vertical value; , C,7.77,PE,"N,N,2,6-Tetramethylbenzeneamine","Rozeboom, Houk, et al., 1982"
 3007-71-4,, C,7.5,CTS,"Aniline, n-octyl-","Briegleb and Czekalla, 1959"
 81506-13-0,Vertical value; , C,7.60 ¡À 0.06,PE,"N-(2,6-Diethylphenyl)pyrrolidine","Rozeboom, Houk, et al., 1982"
 2097-20-3, , C,8,PE,"2,8,9-Trioxa-5-aza-1-silabicyclo[3.3.3]undecane, 3,7-dimethyl-1-phenyl-","Peel and Dianxum, 1988"
 32613-78-8,, C,6.6,PE,"Rhodium, (bis-¦Ç","Green, Powell, et al., 1984"
 14375-84-9,Vertical value, C,7.5,PE,"Iron,tetracarbonyl(triphenylarsine)-","Flamini, Semprini, et al., 1978"
 20932-80-3,Vertical value, C,7.6,PE,"2,7-Disilaoct-4-yne, 2,2,7,7-tetramethyl-3,3,6,6-tetrakis(trimethylsilyl)-","Kaim and Bock, 1979"
 23912-79-0,, C,9.22 ¡À 0.05,PI,"5,7,12,14-Pentacenetetrone","Potapov and Sorokin, 1971"
 641-13-4,, C,8,PE,"Dibenzo[def,mno]chrysene-6,12-dione","Traven, Safronov, et al., 1991"
 14649-69-5,Vertical value, C,7.55,PE,"Iron, tetracarbonyl(triphenylphosphine)-","Flamini, Semprini, et al., 1978"
 6372-44-7,Vertical value, C,8.03,PE,Di-n-butylphenylphosphine,"Schmidt, Schweig, et al., 1975"
 3007-75-8,, C,7.1,CTS,"N,N-Dioctylaniline","Briegleb and Czekalla, 1959"
 75272-68-3,Vertical value, C,6.98,PE,"Silane,(1,2,3,4,5,6,7,8-octahydro-1,4,5,8-naphthalenetetrayl)tetrakis[trimethyl-","Bock and Kaim, 1980"
 64131-86-8,Vertical value, C,7.1,PE,"Silane,[1,2,4,5-benzenetetrayltetrakis(methylene)]tetrakis[trimethyl-","Bock and Kaim, 1978"
 1053-74-3,, C,9.05 ¡À 0.07,CTS,"Ketone, methyl 10-(3-(4-methyl-1-piperazinyl)propyl)phenothiazin-2-yl","Poltorakov, Pirnazarova, et al., 1973"
 19909-65-0,Vertical value; , C,8.6,PE,"Butanetetrone, bis(2,4,6-trimethylphenyl)-","Gleiter and Dobler, 1985"
 42971-09-5,, C,7.32 ¡À 0.05,EI,vinpocetine,"Czira, Tamas, et al., 1984"
 33574-11-7,LLK, C,7.9,PE,"Methanone, phenyl[2,4,6-tris(methylethyl)phenyl]-","Centineo, Fragala, et al., 1978"
 41749-92-2,Vertical value, C,7.4,PE,"Nickel, bis(3,5-heptanedionato-o,o'-2,2,6,6-tetramethyl)-","Fragala, Costanzo, et al., 1980"
 32693-05-3,, C,8.00 ¡À 0.05,EI,"1,1'-Binaphthalene, 8,8'-dimethyl-","Loudon and Mazengo, 1974"
 34003-80-0,, C,8.15 ¡À 0.05,EI,"1,1'-Binaphthalene,7,7'-dimethyl-","Loudon and Mazengo, 1974"
 34042-82-5,, C,8.20 ¡À 0.05,EI,"1,1'-Binaphthalene, 3,3'-dimethyl-","Loudon and Mazengo, 1974"
 34721-69-2,Vertical value, C,6.87,PE,"9,10-(Ethano[2,5]furanoethano)anthracene","Kovac, Allan, et al., 1980"
 32834-84-7,, C,8.20 ¡À 0.05,EI,"1,1'-Binaphthalene, 2,2'-dimethyl-","Loudon and Mazengo, 1974"
 13989-64-5,Vertical value, C,7.35,PE,"2-Propanamine,2-methyl-N-(triphenylphosphoranylidene)-","Starzewski and Dieck, 1979"
 17302-71-5,, C,8.9 ¡À 0.2,EI,"1,2-Bis(4-butyrylphenyl)ethane","Wachs and McLafferty, 1967"
 18753-19-0,, C,8.03,CTS,"Silane,dimethyl-di-1-naphthalenyl-","Pitt, Carey, et al., 1972"
 36534-31-3,, C,7.3 ¡À 0.1,EI,"Cobalt,bis[(1,2,3,4,5,6-¦Ç)-1-phenylboratabenzene]-","Herberich, Greiss, et al., 1971"
 3029-41-2,LLK, C,7.05,PE,"Benzene,1,1'-(1,3,5,7,9-decapentaene-1,10-diyl)bis-","Hudson, Ridyard, et al., 1976"
 84954-89-2,, C,7.35,PE,"1,2,4,5-1',2',4',5'-[2.2.2.2]Cyclooctatetraenocyclophane","Zhong-Zhi, Heilbronner, et al., 1984"
 36799-66-3,, C,8.05 ¡À 0.05,EI,"Copper, bis(3-phenyl-2,4-pentanedionato-O,O')-, (sp-4-1)-","Reichert and Westmore, 1970"
 70759-58-9,Vertical value, C,7.67 ¡À 0.02,PE,"[2.2.2.2.2](1,2,3,4,5)Cyclophane","Kovac, Mohraz, et al., 1980"
 63796-64-5,Vertical value, C,7.9,PE,"Iron,dicarbonylbis[ethyl(phenylmethyl)carbamodithioato-s,s')-(oc-6-21)-","Cauletti, Duffy, et al., 1977"
 109281-34-7, , C,6.9,PE,"Anti-7,14-dihydro-7,14-bis(2-propylidene)-1,6:8,13-bismethano[14]annulene","Gleiter, Dobler, et al., 1987"
 109216-47-9, , C,7.3,PE,"Syn-7,14-dihydro-7,14-bis(2-propylidene)-1,6:8,13-bismethano[14]annulene","Gleiter, Dobler, et al., 1987"
 316-81-4,, C,6.81 ¡À 0.07,CTS,Thioproperazine,"Poltorakov, Pirnazarova, et al., 1973"
 19482-05-4,Vertical value; , C,7.63,PE,"Diazene, bis[4-(pentyloxy)phenyl]-, 1-oxide","Millefiori, Ciliberto, et al., 1981"
 69-23-8,, C,8.64 ¡À 0.07,CTS,Fluphenazine,"Poltorakov, Pirnazarova, et al., 1973"
 66212-59-7, , C,6.7,PE,"[2.2]-Paracyclophane-2,5-dicarboxylic acid, 3',6'-dimethoxy-, dimethyl ester","Gleiter, Schafer, et al., 1988"
 77897-17-7,LLK, C,7,PE,"Tricyclo[8.2.2.2<sup>4,7</sup>]hexadeca-6,10,12,13,15-hexaene, 5,6,11,12,13,15-hexamethyl-","Zhong-zhi, Kovak, et al., 1981"
 33414-36-7,, C,8.71 ¡À 0.07,CTS,Ftorpropazine,"Poltorakov, Pirnazarova, et al., 1973"
 69657-52-9,LBLHLM, C,5.95,PE,"Dicobalt, bis(¦Ì","Dudeney, Green, et al., 1984"
 69728-34-3, , C,5.8,PE,"Dirhodium, bis(¦Ì","Dudeney, Green, et al., 1984"
 68868-62-2, , C,5.8,PE,"Uranium, bis[(¦Ç","Bruno, Ciliberto, et al., 1982"
 67108-80-9, , C,6.8,PE,"Zirconium, dimethylbis[(1,2,3,4,5-¦Ç","Ciliberto, Condorelli, et al., 1981"
 14040-05-2,Vertical value, C,7.4,PE,"Bis(2,2,6,6-tetramethyl-3,5-heptanedionato)copper(II)","Shcheka and Vovna, 1992"
 15214-66-1,Vertical value, C,7.67,PE,"Palladium, bis(2,2,6,6-tetramethyl-3,5-heptanedionato-o,o')-","Fragala, Costanzo, et al., 1980"
 14363-14-5,Vertical value, C,8.15,PE,Zinc di(pivaloylmethane),"Fragala, Costanzo, et al., 1980"
 67605-92-9, , C,6.3,PE,"Uranium, dimethylbis[(1,2,3,4,5-¦Ç","Ciliberto, Condorelli, et al., 1981"
 67506-90-5, , C,6.6,PE,"Thorium, dimethylbis[(1,2,3,4,5-¦Ç)-1,2,3,4,5-pentamethyl-2,4-cyclopentadien-1-yl]-","Ciliberto, Condorelli, et al., 1981"
 91549-47-2,Vertical value, C,6.17,PE,"Ditungsten tetrapropionate, dineopentyl-","Chisholm, Clark, et al., 1987"
 41741-54-2,Vertical value, C,7.92,PE,"Cobalt, bis(2,2,6,6-tetramethyl-3,5-heptanedionato-o,o')-","Fragala, Costanzo, et al., 1980"
 53-70-3,LLK, C,7.38 ¡À 0.02,PE,"Dibenz[a,h]anthracene","Schmidt, 1977"
 215-58-7,LLK, C,7.39,PE,Benzo[b]triphenylene,"Clar and Schmidt, 1979"
 188-52-3, , C,7.51 ¡À 0.02,PE,"Dibenzo[c,g]phenanthrene","Schmidt, 1977"
 238-06-2,, C,8.1 ¡À 0.1,EI,"8,9-Benzacenaphtho[1,2-b]quinoxaline","Gallegos, 1968"
 3029-32-1,LLK, C,8.07 ¡À 0.05,PI,"6,13-Pentacenedione","Potapov and Sorokin, 1971"
 191-24-2,LLK, C,7.20 ¡À 0.05,EQ,Benzo[ghi]perylene,"Mautner(Meot-Ner), 1980"
 191-26-4,LLK, C,6.92 ¡À 0.04,PE,"Dibenzo[def,mno]chrysene","Boschi, Clar, et al., 1974"
 214-17-5,LLK, C,7.14 ¡À 0.04,PE,Benzo[b]chrysene,"Boschi, Clar, et al., 1974"
 135-48-8,LBLHLM, C,6.61,EI,Pentacene,"Stahl and Maquin, 1984"
 213-46-7,LLK, C,7.48 ¡À 0.05,EQ,Picene,"Mautner(Meot-Ner), 1980"
 195-06-2,, C,7.33,CTS,"Naphtho[1,2-a]anthracene","Briegleb, 1964"
 194-69-4,, C,7.82,CTS,Benzo(c)chrysene,"Briegleb, 1964"
 196-78-1,, C,7.57,CTS,Benzo(g)chrysene,"Matsen, 1956"
 222-93-5,LLK, C,7.27,PE,Pentaphene,"Clar and Schmidt, 1979"
 224-41-9,LLK, C,7.40 ¡À 0.02,PE,"Dibenz[a,j]anthracene","Schmidt, 1977"
 226-88-0,LLK, C,6.97 ¡À 0.02,PE,Benzo[a]naphthacene,"Schmidt, 1977"
 344-04-7,LLK, C,9.67 ¡À 0.02,PE,"Benzene, bromopentafluoro-","Mohraz, Maier, et al., 1980"
 281-44-7, , C,9.0 ¡À 0.05,PE,"1,3,5,7-Tetrasilatricyclo[3.3.1.1","Schmidt, Wilkins, et al., 1973"
 1627-98-1,RDSH, C,8.56 ¡À 0.07,EI,"1,3-Disilacyclobutane, 1,1,3,3-tetramethyl-","Pitt, Habercom, et al., 1968"
 617-86-7,LLK, C,9.5,PE,"Silane, triethyl-","Potzinger, Ritter, et al., 1975"
 3429-52-5,, C,9.50 ¡À 0.03,EI,Isopropyltrimethylsilane,"Hess, Lampe, et al., 1965"
 527-21-9,LLK, C,10.7,PE,"p-Benzoquinone, 2,3,5,6-tetrafluoro-","Asbrink, Svensson, et al., 1981"
 23337-93-1,LBLHLM, C,6.75 ¡À 0.05,EQ,"N,N'-Diethyl-N,N'-dimethylhydrazine","Rumack, 1986"
 110-18-9,LLK, C,7.57 ¡À 0.03,PI,"1,2-Ethanediamine, N,N,N',N'-tetramethyl-","Loguinov, Takhistov, et al., 1981"
 124-09-4,Vertical value; , C,7.52,PE,"1,6-Hexanediamine","Kobayashi, 1978"
 6069-38-1,LBLHLM, C,7.1,PE,"1,3,2-Diazaphospholidine-2-amine, N,N',N'',N''-tetramethyl-","Worley, Hargis, et al., 1982"
 3711-34-0,Vertical value, C,8.45,PE,"Hydrazine, 1,2-bis(1-methylethyl)-","Rademacher, 1975"
 60678-65-1,LBLHLM, C,6.63 ¡À 0.05,EQ,Propyltrimethylhydrazine,"Mautner(Meot-Ner), Nelsen, et al., 1984"
 21849-74-1,Vertical value; , C,8.37,PE,"N,N-Diethyl-N',N'-dimethylhydrazine","Nelsen, 1984"
 4986-50-9,Vertical value, C,8.51,PE,"Hydrazine, 1,1-dipropyl-","Nelsen and Buschek, 1974"
 4420-74-0,Vertical value, C,9.01,PE,"1-Propanethiol, 3-(trimethoxysilyl)-","Ermakov, Kirichenko, et al., 1987"
 1615-83-4,Vertical value, C,8.62,PE,"Hydrazine, 1,2-dipropyl-","Rademacher, 1975"
 20717-38-8,LBLHLM, C,6.84 ¡À 0.05,EQ,"1,2,4,5-Tetrazine, hexahydro-1,2,4,5-tetramethyl-","Rumack, 1986"
 49840-63-3,Vertical value; , C,8.36,PE,"Hydrazine, trimethyl(1-methylethyl)-","Nelsen, 1984"
 2368-49-2,LBLHLM, C,9.3,PE,"Benzene, 1,3,5-tribromo-2,4,6-trifluoro-","Maier and Thommen, 1982"
 3531-45-1,RDSH, C,8.54 ¡À 0.01,EI,"Stannane, trimethylpropyl-","Yergey and Lampe, 1968"
 3531-46-2,RDSH, C,8.28 ¡À 0.01,EI,"Stannane, trimethyl(1-methylethyl)-","Yergey and Lampe, 1968"
 997-50-2,Vertical value; , C,9.1,PE,"Stannane, triethyl-","Beltram, Fehlner, et al., 1980"
 4282-05-7,Vertical value, C,9.01,PE,"Stannane, diethyldimethyl-","Kochi, 1980"
 1188-14-3,Vertical value, C,9.6,PE,"Germane, triethyl-","Beltram, Fehlner, et al., 1980"
 13399-93-4, , C,9.05,PE,"1-Propanethiol, 3-trimethylsilyl-","Ermakov, Kirichenko, et al., 1987"
 6298-65-3,Vertical value, C,8.47,PE,"Bicyclopentadienylidene, octachloro-","Streets and Berkowitz, 1977"
 23835-38-3,, C,9.4,PI,"1,2-Dicarbadodecaborane(12), 1-butyl-","Orlov, Pustobaev, et al., 1989"
 29634-17-1,Vertical value, C,10.39,PE,"Tetraphosphirane,tris(pentafluoroethyl)-","Cowley, Dewar, et al., 1978"
 19227-22-6,Vertical value, C,9.28,PE,"4,5,6,7-Tetrafluorobenzo-2,1,3-selenazole","Petrachenko, Vovna, et al., 1991"
 75207-77-1,Vertical value, C,9.51,PE,"2,1,3-Benzothiadiazole, tetrafluoro-","Petrachenko, Vovna, et al., 1991"
 70312-25-3,, C,9.39,PI,"1,7-Dicarbadodecaborane(12), 1-butyl-","Orlov, Pustobaev, et al., 1989"
 359-70-6,, C,11.7,PI,"Ethanamine, 1,1,2,2,2-pentafluoro-N,N-bis(pentafluoroethyl)-","Watanabe, Nakayama, et al., 1962"
 87-82-1,, C,8.8,PE,"Benzene, hexabromo-","Sato, Seki, et al., 1981"
 16419-78-6,LLK, C,11.2,S,Hexadiynedinitrile,"Connors, Roebber, et al., 1974"
 670-54-2,LLK, C,11.765 ¡À 0.008,PI,Tetracyanoethylene,"Knowles and Nicholson, 1974"
 874-14-6,LLK, C,8.8 ¡À 0.1,EI,"2,4(1H,3H)-Pyrimidinedione, 1,3-dimethyl-","Verkin, Sukodub, et al., 1976"
 4160-77-4,, C,8.6 ¡À 0.1,EI,"2,4(1H,3H)-Pyrimidinedione,3,5-dimethyl-","Verkin, Sukodub, et al., 1976"
 54818-70-1,LLK, C,7.67 ¡À 0.05,EI,"N-Methyl-2-pyridinamine, 1-oxide","Undheim, El-Gendy, et al., 1974"
 54818-71-2,LLK, C,7.97 ¡À 0.05,EI,"N-Methyl-3-pyridinamine, 1-oxide","Undheim, El-Gendy, et al., 1974"
 1194-71-4,, C,8.4,PE,"1H,3H-Pyrimidine-4-one-2-thione, 1,3-dimethyl-","Katritzky and Szafrani, 1990"
 6327-98-6,, C,8.55,PE,"3H-4-Pyrimidinone, 3-methyl-2-methylthio-","Katritzky and Szafrani, 1990"
 6330-98-9,, C,8.8,PE,"1H-4-Pyrimidinone, 1-methyl-2-methylthio-","Katritzky and Szafrani, 1990"
 76541-59-8,, C,8.35,PE,"Pyrimidine, 4-methoxy-2-methylthio-","Katritzky and Szafrani, 1990"
 54818-76-7,, C,7.46 ¡À 0.05,EI,"2(1H)-Pyridinimine,1-methoxy-","Undheim, El-Gendy, et al., 1974"
 1122-92-5,LLK, C,7.45 ¡À 0.05,EI,"N-Methyl-4-pyridinamine, 1-oxide","Undheim, El-Gendy, et al., 1974"
 55764-23-3,, C,8.23 ¡À 0.05,EI,"2,5-Dimethyl-3-furanthiol","Cederlund, Lantz, et al., 1977"
 33922-75-7,, C,9.44 ¡À 0.05,EI,"2,5-Dihydro-3,4-dimethylthiophen-2-one","Thorstad, Undheim, et al., 1975"
 3760-59-6,, C,8.55 ¡À 0.05,EI,"3(2H)-Thiophenone,2,5-dimethyl-","Thorstad, Undheim, et al., 1975"
 13678-59-6,, C,8.15 ¡À 0.05,EI,"Furan, 2-methyl-5-(methylthio)-","Cederlund, Lantz, et al., 1977"
 31053-55-1,, C,8.01 ¡À 0.05,EI,"Thiophene, 2-methoxy-5-methyl-","Thorstad, Undheim, et al., 1975"
 56761-30-9,, C,9.08 ¡À 0.05,EI,"2(5H)-Thiophenone,5-ethyl-","Thorstad, Undheim, et al., 1975"
 35983-76-7,, C,9.13 ¡À 0.05,EI,"2(5H)-Thiophenone,4,5-dimethyl-","Thorstad, Undheim, et al., 1975"
 33687-87-5,, C,8.05 ¡À 0.05,EI,"Thiophene,2-methoxy-3-methyl-","Thorstad, Undheim, et al., 1975"
 33687-82-0,, C,8.77 ¡À 0.05,EI,"2(3H)-Thiophenone,3,3-dimethyl-","Thorstad, Undheim, et al., 1975"
 33687-84-2,, C,9.35 ¡À 0.05,EI,"2(5H)-Thiophenone,3,5-dimethyl-","Thorstad, Undheim, et al., 1975"
 637-88-7,Vertical value; , C,9.85,PE,"1,4-Cyclohexanedione","Dougherty, Brint, et al., 1978"
 14400-67-0,, C,9.23 ¡À 0.05,EI,"2,5-dimethyl-3(2H)-furanone","Thorstad, Undheim, et al., 1975"
 504-02-9,LLK, C,9.52 ¡À 0.05,PE,"1,3-Cyclohexanedione","Houk, Davis, et al., 1973"
 84451-42-3, , C,¡Ü9.6,PE,"3-Thiabicyclo[3.2.0]hept-6-ene 3,3-dioxide","Aitken, Gosney, et al., 1984"
 58386-20-2, , C,7.3,PE,"Thiophene, 2,5-dimethoxy-","Bajic, Humski, et al., 1985"
 57556-10-2,, C,8.24 ¡À 0.05,EI,"3(2H)-Selenophenone,2,5-dimethyl-","Thorstad, Undheim, et al., 1975"
 5870-63-3,, C,8.84 ¡À 0.05,PE,"2-Cyclopenten-1-one,3-hydroxy-2-methyl-","Houk, Davis, et al., 1973"
 6671-70-1,Vertical value, C,8.76,PE,"2,3-Dioxabicyclo[2.2.2]oct-5-ene","Gleiter, Schang, et al., 1980"
 15940-89-3,Vertical value, C,9.33,PE,"1,2-Propanedione,1-cyclopropyl-","Kelder, Cerfontain, et al., 1974"
 765-69-5,Vertical value, C,9.4 ¡À 0.1,PE,"1,3-Cyclopentanedione, 2-methyl-","Houk, Davis, et al., 1973"
 70517-24-7,, C,8.38,PE,"1,4-Dioxane,2,3-bis(methylene)-","Scharf, Plum, et al., 1979"
 624-48-6,Vertical value, C,10.3,PE,"2-Butenedioic acid (Z)-, dimethyl ester","Kobayashi, Yokota, et al., 1975"
 624-49-7,Vertical value, C,10.5,PE,Dimethyl fumarate,"Kobayashi, Yokota, et al., 1975"
 108-50-9,, C,8.8,PE,"Pyrazine, 2,6-dimethyl-","Haselbach, Lanyiova, et al., 1973"
 100-63-0,RDSH, C,7.74,PE,"Hydrazine, phenyl-","Bodor, Dewar, et al., 1970"
 108-45-2,LLK, C,7.14,PI,"1,3-Phenylenediamine","Pykhtina, Cherednichenko, et al., 1974"
 95-54-5,LLK, C,7.2,PE,"1,2-Benzenediamine","Tsuji, Saito, et al., 1973"
 106-50-3,LLK, C,6.84,PE,"1,4-Benzenediamine","Tsuji, Saito, et al., 1973"
 18364-47-1,LLK, C,8.53 ¡À 0.05,EI,N-Methyl-3-pyridinamine,"Gronneberg and Undheim, 1973"
 1121-58-0,LLK, C,8.75 ¡À 0.05,EI,N-Methyl-4-pyridinamine,"Gronneberg and Undheim, 1973"
 4597-87-9,LLK, C,8.26 ¡À 0.05,EI,"2-Pyridinamine, N-methyl-","Gronneberg and Undheim, 1973"
 16562-40-6,, C,7.85 ¡À 0.05,EI,"4(1H)-Pyridinimine, 1-methyl-","Gronneberg and Undheim, 1973"
 38879-42-4,, C,7.5 ¡À 0.1,EI,"Pyridinium,3-amino-1-methyl-,hydroxide,inner salt","Gronneberg and Undheim, 1973"
 3430-27-1,, C,9.3,CTS,3-Amino-4-picoline,"Daisey and Sonnessa, 1972"
 4088-63-5,, C,7.91 ¡À 0.05,EI,"2(1H)-Pyridinimine, 1-methyl-","Gronneberg and Undheim, 1973"
 1824-81-3,, C,9.1,CTS,"2-Pyridinamine, 6-methyl-","Daisey and Sonnessa, 1972"
 77471-71-7,LLK, C,9.34,PE,"Thiacyclohexane, 4-difluoromethylene","Sarneel, Worrell, et al., 1980"
 29874-05-3,, C,8.22 ¡À 0.05,EI,"3-Thiophenethiol,2,5-dimethyl-","Cederlund, Lantz, et al., 1977"
 74796-12-6,LBLHLM, C,7.8,PE,"6,7-Dithia-bicyclo(3.2.1)octane, 2,4-dichloro-, (exo,exo)","Jorgensen and McCabe, 1983"
 3993-62-2,Vertical value, C,9.21,PE,"2,3-Diazabicyclo[2.2.2]oct-2-ene, 1,4-dichloro-","Engel, Gerth, et al., 1988"
 3208-16-0,LLK, C,8.45 ¡À 0.05,EI,"Furan, 2-ethyl-","Linda, Marino, et al., 1971"
 40990-29-2,, C,8.13 ¡À 0.05,EI,"Thiophene,2-methyl-5-(methylthio)-","Cederlund, Lantz, et al., 1977"
 625-86-5,LBLHLM, C,7.8,PE,"Furan, 2,5-dimethyl-","Veszpremi, Nyulaszi, et al., 1987"
 930-68-7,LLK, C,9.23 ¡À 0.05,PE,2-Cyclohexen-1-one,"Holmes, Terlouw, et al., 1979"
 142-83-6,Vertical value, C,9.22 ¡À 0.03,PE,"2,4-Hexadienal, (E,E)-","Klessinger and Gunkel, 1978"
 14920-89-9,LBLHLM, C,8.25 ¡À 0.10,EI,"2,3-dimethylfuran","Grutzmacher and Spilker, 1985"
 3710-43-8,LBLHLM, C,8.39 ¡À 0.10,EI,"2,4-Dimethylfuran","Grutzmacher and Spilker, 1985"
 13531-82-3,Vertical value, C,9.89,PE,"1-Pentyn-3-one, 4-methyl-","Carlier and Mouvier, 1979"
 6705-50-6,Vertical value; , C,9.44 ¡À 0.02,PE,"Bicyclo[2.2.1]hept-2-ene, 7-oxa-","Bain, Bunzli, et al., 1973"
 4096-34-8,Vertical value; , C,9.42,PE,cyclohex-3-en-1-one,"Hentrich, Gunkel, et al., 1974"
 16855-95-1,, C,8.51,EI,"4H-Pyran, 4-methyl-","Spilker and Grutzmacher, 1986"
 10575-41-4,Vertical value, C,9.62,PE,Hex-4-yn-3-one,"Carlier and Mouvier, 1979"
 689-00-9,LBLHLM, C,10.22 ¡À 0.04,EI,HC¡ÔCCOCH2CH2CH3,"Turecek, Havlas, et al., 1986"
 363-72-4,LLK, C,9.73,PE,"Benzene, pentafluoro-","Sell, Mintz, et al., 1978"
 771-61-9,LLK, C,9.20 ¡À 0.02,PE,"Phenol, pentafluoro-","Maier and Turner, 1973"
 78550-67-1,Vertical value; , C,8.78,PE,"Phosphine, 1,4-phenylenebis-","Cabelli, Cowley, et al., 1981"
 63359-62-6,, C,7.84 ¡À 0.05,EI,"Selenophene,2-methyl-5-(methylthiol)-","Cederlund, Lantz, et al., 1977"
 63359-61-5,, C,7.90 ¡À 0.05,EI,"3-Selenophenethiol,2,5-dimethyl-","Cederlund, Lantz, et al., 1977"
 24719-68-4,Vertical value, C,7.17,PE,"1,3-Dithiolane,2-(1,3-dithiolan-2-ylidene)-","Gleiter, Kobayashi, et al., 1975"
 632-15-5,Vertical value; , C,8.55,PE,"Thiophene, 3,4-dimethyl-","Bock and Roth, 1983"
 872-55-9,LLK, C,8.57,CTS,"Thiophene, 2-ethyl-","Aloisi and Pignataro, 1973"
 638-02-8,LLK, C,8.1,EI,"Thiophene, 2,5-dimethyl-","Aloisi and Pignataro, 1973"
 63878-65-9,Vertical value, C,7.7,PE,"Silabenzene,1-methyl-","Bock, Bowling, et al., 1980"
 694-53-1,LLK, C,9.25,PE,"Silane, phenyl-","Pitt, 1973"
 81382-23-2,Vertical value, C,10.7,PE,"2,8,9-Trioxa-5-aza-1-borabicyclo[3.3.3]undecane-3,7-dione","Peel, Rothwell, et al., 1987"
 1675-60-1,, C,10.85 ¡À 0.10,EI,"Silane, diethynyldimethyl-","MacLean and Sacher, 1974"
 28056-58-8,, C,10.57 ¡À 0.07,EI,"Germane, diethynyldimethyl-","MacLean and Sacher, 1974"
 36351-95-8,Vertical value, C,9.43,PE,"Beryllium,(¦Ç","Bohm, Gleiter, et al., 1980"
 592-57-4,LLK, C,8.25,PE,"1,3-Cyclohexadiene","Kimura, Katsumata, et al., 1981"
 628-41-1,LLK, C,8.82,PE,"1,4-Cyclohexadiene","Kimura, Katsumata, et al., 1981"
 96-39-9,LLK, C,8.40 ¡À 0.02,PE,"1,3-Cyclopentadiene, 1-methyl-","Bieri, Burger, et al., 1977"
 3727-31-9,RDSH, C,8.46 ¡À 0.05,EI,"2-Methyl-1,3-cyclopentadiene","Meyer and Harrison, 1964"
 821-07-8,LLK, C,8.30 ¡À 0.02,PE,"1,3,5-Hexatriene, (E)-","Allan, Dannacher, et al., 1980"
 2235-12-3,, C,8.42 ¡À 0.05,EI,"1,3,5-Hexatriene","Franklin and Carroll, 1969"
 2612-46-6,, C,8.31 ¡À 0.02,PE,"1,3,5-Hexatriene, (Z)-","Allan, Dannacher, et al., 1980"
 96-38-8,LLK, C,8.45 ¡À 0.02,PE,"1,3-Cyclopentadiene, 5-methyl-","Bieri, Burger, et al., 1977"
 14296-80-1,Vertical value; , C,8.66,PE,"Cyclobutane, 1,2-bis(methylene)-","Werstiuk, Clark, et al., 1990"
 13721-54-5,LLK, C,8.91 ¡À 0.01,PE,1-Hexen-3-yne,"Carlier, Mouvier, et al., 1979"
 3097-63-0,LLK, C,9.0 ¡À 0.1,PE,Bicyclo[2.2.0]hex-2-ene,"Bieri, Burger, et al., 1977"
 25054-29-9,Vertical value; , C,8.54,PE,"1,2,4-Pentatriene, 3-methyl-","Delwiche, Praet, et al., 1979"
 27567-82-4,LLK, C,8.5,PE,Cyclopropylidene cyclopropane,"Gleiter, Haider, et al., 1979"
 50786-62-4,Vertical value; , C,10.02,PE,Ethynylcyclobutane,"Bruckmann and Klessinger, 1978"
 287-12-7,Vertical value; , C,9.43,PE,Tricyclo[3.1.0.0,"Bischof, Gleiter, et al., 1976"
 71153-30-5,Vertical value, C,8.29,PE,"Cyclopropene, 3-methyl-3-vinyl-","Plemenkov, Zverev, et al., 1989"