CAS,Comment,Formula,IE,Method,Name,Refer
 873-73-4,LLK, C,8.6,PE,"Benzene, 1-chloro-4-ethynyl-","Griebel, Hohlneicher, et al., 1974"
 1483-82-5,Vertical value, C,8.7,PE,"Benzene,(chloroethynyl)-","Griebel, Hohlneicher, et al., 1974"
 819-19-2,LLK, C,7.9,PE,"Phosphine, bis(1,1-dimethylethyl)-","Lappert, Pedley, et al., 1975"
 652-22-2,RDSH, C,11.05,EI,"Acetophenone, octafluoro-","Majer and Patrick, 1963"
 3215-64-3,, C,9.73 ¡À 0.06,EI,"Acetonitrile, (2,6-dichlorophenyl)-","Buchs, 1970"
 36525-03-8,LLK, C,8.3,PE,"Mercury, chloro((E)-2-phenylethenyl)-","Baidin, Chizhov, et al., 1981"
 52707-46-7,LLK, C,7.1,PE,"Thiophene, 2-(2-pyrrolyl)-","Galasso, Klasinc, et al., 1981"
 768-33-2,Vertical value, C,9.3,PE,"Silane, chlorodimethylphenyl-","Veszpremi, Harada, et al., 1984"
 121-89-1,RDSH, C,9.89 ¡À 0.05,EI,"Ethanone, 1-(3-nitrophenyl)-","Pignataro, Foffani, et al., 1966"
 100-19-6,RDSH, C,10.07 ¡À 0.02,EI,"Acetophenone, 4'-nitro-","Foffani, Pignataro, et al., 1964"
 17700-54-8,, C,8.25 ¡À 0.03,EI,"Acetamide, N-(2,6-dichlorophenyl)-","Benezra and Bursey, 1972"
 2254-94-6,, C,7.81,PE,"2(3H)-Benzothiazolethione, 3-methyl-","Guimon, Arbelot, et al., 1975"
 6975-29-7,, C,8.09 ¡À 0.03,EI,"Acetamide, N-(2,4-dichlorophenyl)-","Benezra and Bursey, 1972"
 30277-17-9,, C,7.03 ¡À 0.05,EI,"Thiazolo[3,2-a]pyridinium, 8-hydroxy-5-methyl-, hydroxide, inner salt","Gronneberg and Undheim, 1972"
 30276-99-4,, C,7.12 ¡À 0.05,EI,"Thiazolo[3,2-a]pyridinium, 8-hydroxy-3-methyl-, hydroxide, inner salt","Laerum and Undheim, 1978"
 35143-56-7,, C,6.82 ¡À 0.05,EI,"Thiazolo[3,2-a]pyridinium,3-hydroxy-2-methyl-,hydroxide,inner salt","Fjeldstad and Undheim, 1973"
 13673-63-7,, C,7.94,PE,"2(3H)-Benzoxazolethione,3-methyl-","Guimon, Arbelot, et al., 1975"
 71310-14-0,, C,7.44,EI,"5H-Thiazolo[3,2-a]pyridin-5-one,3-methyl-","Laerum and Undheim, 1978"
 619-50-1,RDSH, C,9.7,EI,"Benzoic acid, 4-nitro-, methyl ester","Howe and Williams, 1969"
 830-03-5,, C,9.5 ¡À 0.2,EI,"Acetic acid, 4-nitrophenyl ester","Gamble, Gilbert, et al., 1971"
 1523-06-4,, C,9.4 ¡À 0.2,EI,"Acetic acid, 3-nitrophenyl ester","Gamble, Gilbert, et al., 1971"
 120-75-2,Vertical value, C,8.65,PE,"Benzothiazole, 2-methyl-","Salmona, Faure, et al., 1975"
 3012-37-1,, C,9.06 ¡À 0.05,EI,"Thiocyanic acid, phenylmethyl ester","Pignataro, Foffani, et al., 1966"
 874-90-8,LLK, C,8.6,PE,"Benzonitrile, 4-methoxy-","Modelli and Distefano, 1981"
 63122-43-0,LLK, C,6.95,PE,"Furan, 2-(2-pyrrolyl)-","Galasso, Klasinc, et al., 1981"
 59-48-3,Vertical value, C,8.36,PE,"2H-Indol-2-one, 1,3-dihydro-","Nakagaki, Kobayashi, et al., 1980"
 1527-89-5,, C,9.05 ¡À 0.04,EI,m-Methoxybenzontrile,"Buchs, 1970"
 71127-67-8,Vertical value, C,7.42,PE,"Chromium,pentacarbonyl(isoxazole-N","Daamen, Oskam, et al., 1979"
 614-68-6,Vertical value, C,8.7 ¡À 0.1,PE,"Benzene, 1-isocyanato-2-methyl-","Neijzen and DeLange, 1980"
 621-29-4,Vertical value, C,8.7 ¡À 0.1,PE,"Benzene, 1-isocyanato-3-methyl-","Neijzen and DeLange, 1980"
 15500-73-9,Vertical value, C,8.42,PE,"Benzonitrile,4-methoxy-N-oxide","Houk, Caramella, et al., 1977"
 35191-20-9,, C,8.60 ¡À 0.05,EI,"Thiazolo[3,2-a]pyridinium,3,8-dihydroxy-2-methyl-,hydroxide,inner salt","Fjeldstad and Undheim, 1973"
 622-58-2,Vertical value, C,8.6 ¡À 0.1,PE,"Benzene, 1-isocyanato-4-methyl-","Neijzen and DeLange, 1980"
 14191-95-8,, C,9.01 ¡À 0.05,EI,"Benzeneacetonitrile, 4-hydroxy-","Buchs, 1970"
 39554-14-8,Vertical value, C,7.32,PE,"Chromium,pentacarbonyl(isothiazole-N","Daamen, Oskam, et al., 1979"
 55293-31-7,Vertical value, C,7.36,PE,"Chromium,pentacarbonyl(thiazole-N","Daamen, Oskam, et al., 1979"
 874-60-2,, C,9.37 ¡À 0.01,EI,"Benzoyl chloride, 4-methyl-","Foffani, Pignataro, et al., 1964"
 99-91-2,RDSH, C,9.63,EI,"Ethanone, 1-(4-chlorophenyl)-","Howe and Williams, 1969"
 99-02-5,RDSH, C,9.5 ¡À 0.1,EI,"Acetophenone, 3'-chloro-","Chin and Harrison, 1969"
 1126-46-1,RDSH, C,9.57,EI,"Benzoic acid, 4-chloro-, methyl ester","Howe and Williams, 1969"
 876-27-7,, C,8.8 ¡À 0.2,EI,"Acetic acid, 4-chlorophenyl ester","Gamble, Gilbert, et al., 1971"
 100-07-2,, C,8.87 ¡À 0.05,EI,"Benzoyl chloride, 4-methoxy-","Foffani, Pignataro, et al., 1964"
 4525-75-1,, C,8.67 ¡À 0.03,EI,"Acetic acid, 2-chlorophenyl ester","Benezra and Bursey, 1971"
 13031-39-5,, C,8.8 ¡À 0.2,EI,"Acetic acid,3-chlorophenyl ester","Gamble, Gilbert, et al., 1971"
 532-27-4,RDSH, C,9.44 ¡À 0.05,EI,"Acetophenone, 2-chloro-","Pignataro, Foffani, et al., 1966"
 52548-11-5,, C,8.8 ¡À 0.1,EI,"Silane,chlorodimethyl(phenylthio)-","Distefano, Ricci, et al., 1974"
 17530-69-7,Vertical value; , C,9.35,PE,"3-Chloro-5,5-dimethylcyclohex-2-enone","Pfister-Guillouzo, Geribaldi, et al., 1982"
 10340-91-7,RDSH, C,9.61 ¡À 0.05,EI,"Benzene, (isocyanomethyl)-","Distefano, Innorta, et al., 1968"
 120-72-9,LL, C,7.7602 ¡À 0.0006,LS,Indole,"Hager and Wallace, 1988"
 96480-42-1, , C,7.8,PE,"Manganese, ¦Ç","Green, Paz-Sandoval, et al., 1985"
 140-29-4,LBLHLM, C,9.32 ¡À 0.05,EI,Benzyl nitrile,"Selim, Rabbih, et al., 1987"
 529-19-1,Vertical value, C,9.4,PE,"Benzonitrile, 2-methyl-","Palmer, Moyes, et al., 1980"
 104-85-8,LLK, C,9.32,EI,"Benzonitrile, 4-methyl-","Van Der Greef, Molenaar-Langeveld, et al., 1979"
 13612-59-4,, C,8.89,EI,"2,4,6-Cycloheptatriene-1-carbonitrile","Van Der Greef, Molenaar-Langeveld, et al., 1979"
 39863-20-2,Vertical value; , C,9.26,PE,"2-Carbonitrile,bicyclo[2.2.1]hept-2,5-diene","Houk, Rondan, et al., 1983"
 33307-30-1, , C,7.6,PE,"Manganese, tetracarbonyl(1-methyl-¦Ð-allyl)-","Bohm, Gleiter, et al., 1983"
 651-89-8,Vertical value, C,9.9,PE,"Benzene, 1,2,4,5-tetrafluoro-3,6-bis(trifluoromethyl)-","Maier, Marthaler, et al., 1980"
 33307-32-3,LBLHLM, C,7.7,PE,"Manganese, tetracarbonyl(2-methyl-¦Ç","Bohm, Gleiter, et al., 1983"
 274-40-8,LLK, C,7.26,EI,Indolizine,"Corval, 1979"
 620-22-4,RDSH, C,9.58 ¡À 0.05,EI,"Benzonitrile, 3-methyl-","Buchs, 1970"
 34259-72-8,, C,9.1 ¡À 0.2,EI,"Silane,trichloro[3-(dimethylsilyl)phenyl]-","Dube and Chvalovsky, 1974"
 33287-50-2,, C,9.3 ¡À 0.2,EI,"Silane,trichloro[4-(dimethylsilyl)phenyl]-","Dube and Chvalovsky, 1974"
 2097-18-9,Vertical value, C,8.5 ¡À 0.1,PE,"2,8,9-Trioxa-5-aza-1-silabicyclo[3.3.3]undecane, 1-ethenyl-","Peel and Dianxum, 1988"
 84519-43-7, , C,7.9,PE,"Rhenium, [1,2,3-¦Ç","Bohm, Gleiter, et al., 1983"
 120-29-6,, C,8.1 ¡À 0.15,EI,"8-Azabicyclo[3.2.1]octan-3-ol, 8-methyl-, endo-","Grutzmacher and Lange, 1978"
 33307-33-4, , C,8,PE,"Rhenium, tetracarbonyl[(1,2,3-¦Ç","Bohm, Gleiter, et al., 1983"
 135-97-7,, C,7.9 ¡À 0.15,EI,"8-Azabicyclo[3.2.1]octan-3-ol, 8-methyl-, exo-","Grutzmacher and Lange, 1978"
 1074-51-7,LLK, C,8.80 ¡À 0.03,PI,"Cyclooctanone, oxime","Golubitskii, Kulikov, et al., 1979"
 935-30-8,Vertical value, C,9.12,PE,1-Azacyclononan-2-one,"Treschanke and Rademacher, 1985"
 1889-08-3,Vertical value, C,8.76,PE,Hexahydro-1-methyl-2(1H)-azocinone,"Treschanke and Rademacher, 1985"
 26608-58-2,Vertical value, C,8.17 ¡À 0.015,PE,1-Azabicyclo[2.2.2]octane-4-methanol,"Bieri and Heilbronner, 1974"
 2403-55-6,Vertical value, C,8.20 ¡À 0.03,PE,"Morpholine, 4-(2-methyl-1-propenyl)-","Colonna, Distefano, et al., 1975"
 71512-38-4,Vertical value, C,8.13,PE,1-Methylhexahydroazocin-5-one,"Spanka, Boese, et al., 1987"
 38705-10-1,Vertical value; , C,8.08,PE,"1,3,5-Triazatricyclo[3.3.1.1","Nelsen and Buschek, 1974"
 72443-11-9,, C,8,PE,"3,5-Dihydro-4-(methylimino)-4H-pyrazole, 3,3,5,5-tetramethyl-","Kindermann, Poppek, et al., 1990"
 63544-85-4,Vertical value, C,7.45,PE,"Rhodium, ¦Ç","Lichtenberger and Renshaw, 1991"
 4636-16-2,Vertical value, C,9.21,PE,"Ethanone, 2-iodo-1-phenyl-","Distefano, Granozzi, et al., 1987"
 55100-40-8,Vertical value, C,7.78 ¡À 0.05,PE,"2-Azabicyclo[2.2.2]octane,2-methyl-","Morishima, Yoshikawa, et al., 1975"
 619-44-3,LLK, C,8.73,PE,"Benzoic acid, 4-iodo-, methyl ester","Behan, Johnstone, et al., 1976"
 33527-94-5,, C,8.20 ¡À 0.03,EI,"Phenol,4-iodo-,acetate","Benezra and Bursey, 1971"
 32865-61-5,, C,8.25 ¡À 0.03,EI,"Phenol, 2-iodo-, 1-acetate","Benezra and Bursey, 1971"
 45651-41-0,Vertical value; , C,8.06 ¡À 0.015,PE,"1-Azabicyclo[2.2.2]octane, 4-methyl-","Bieri and Heilbronner, 1974"
 2403-57-8,LLK, C,6.8,PE,"Pyrrolidine, 1-(2-methyl-1-propenyl)-","Muller, Previdoli, et al., 1981"
 529-17-9,Vertical value, C,8.21,PE,Tropane,"Spanka and Rademacher, 1986"
 68003-65-6,Vertical value, C,8.69,PE,"1-Propen-1-amine, N-(2,2-dimethylpropylidene)-, (E,E)-","Worley, Taylor, et al., 1978"
 81156-89-0,Vertical value; , C,7.48,PE,"Azetidine, 1-(1-ethyl-1-propenyl)-","Muller, Previdoli, et al., 1981"
 68003-54-3,Vertical value, C,9.31,PE,"2-Propen-1-amine, N-(2,2-dimethylpropylidene)-, (E)-","Worley, Taylor, et al., 1978"
 13937-89-8,LLK, C,6.7,PE,"Pyrrolidine, 1-(1-butenyl)-","Muller, Previdoli, et al., 1981"
 284-18-4,Vertical value, C,8.5,PE,9-Azabicyclo[4.2.1]nonane,"Schmidt, Schweig, et al., 1974"
 74725-77-2,LBLHLM, C,8.6,PE,Iodocubane,"Abeywickrema, Della, et al., 1984"
 13815-46-8,Vertical value; , C,7.5,PE,"N,N-Dimethyl-1-cyclohexan-1-amine","Muller, Previdoli, et al., 1981"
 653-34-9,LLK, C,9.18 ¡À 0.02,PE,"Benzene, ethenylpentafluoro-","Maier and Turner, 1973"
 652-29-9,RDSH, C,11.25,EI,"2',3',4',5',6'-Pentafluoroacetophenone","Majer and Patrick, 1963"
 16264-67-8,Vertical value, C,8.30 ¡À 0.015,PE,"1H-Indole, 4,5,6,7-tetrafluoro-","Gusten, Klasinc, et al., 1976"
 80389-94-2, , C,7.8,PE,"Rhenium, ¦Ç","Green, Paz-Sandoval, et al., 1985"
 455-36-7,RDSH, C,9.8 ¡À 0.1,EI,"Ethanone, 1-(3-fluorophenyl)-","Chin and Harrison, 1969"
 403-42-9,RDSH, C,9.6 ¡À 0.2,EI,"Ethanone, 1-(4-fluorophenyl)-","Chin and Harrison, 1969"
 1829-37-4,, C,8.66 ¡À 0.03,EI,"Phenol, 2-bromo-, acetate","Benezra and Bursey, 1971"
 3896-29-5,, C,8.52 ¡À 0.03,EI,"Acetamide,N-(2,6-difluorophenyl)-","Benezra and Bursey, 1972"
 399-36-0,, C,8.21 ¡À 0.03,EI,"Acetamide,N-(2,4-difluorophenyl)-","Benezra and Bursey, 1972"
 29650-44-0,, C,8.78 ¡À 0.03,EI,"Phenol, 2-fluoro-, 1-acetate","Benezra and Bursey, 1971"
 405-51-6,, C,8.27 ¡À 0.03,EI,1-Acetoxy-4-fluorobenzene,"Benezra and Bursey, 1971"
 619-42-1,, C,9.47,EI,"Benzoic acid, 4-bromo-, methyl ester","Howe and Williams, 1969"
 35065-86-2,, C,8.8 ¡À 0.2,EI,"Phenol, 3-bromo-, acetate","Gamble, Gilbert, et al., 1971"
 1927-95-3,, C,8.6 ¡À 0.2,EI,"Phenol, 4-bromo-, acetate","Gamble, Gilbert, et al., 1971"
 99-90-1,LLK, C,9.0 ¡À 0.1,PE,"Ethanone, 1-(4-bromophenyl)-","Egdell, Green, et al., 1975"
 2142-63-4,, C,9.6 ¡À 0.1,EI,"Ethanone, 1-(3-bromophenyl)-","Chin and Harrison, 1969"
 70-11-1,Vertical value; , C,9.6,PE,"Ethanone, 2-bromo-1-phenyl-","Distefano, Granozzi, et al., 1987"
 59346-69-9, , C,8.8,PE,Bromocubane,"Honegger, Heilbronner, et al., 1985"
 36198-58-0,Vertical value, C,8.21 ¡À 0.05,PE,"Arsine sulfide, dimethylphenyl-","Distefano, Modelli, et al., 1981"
 57254-27-0,Vertical value, C,7.17,PE,"Methanamine,N-[1-methyl-2-(5-methyl-3H-1,2-dithiol-3-ylidene)ethylidene]-","Gleiter, Gygax, et al., 1975"
 13271-49-3,Vertical value; , C,9.35,PE,"2-Cyclohexenone,3-bromo,5,5-dimethyl-","Pfister-Guillouzo, Geribaldi, et al., 1982"
 26387-49-5, , C,8.09,PE,"1,3,2-Diazaphosphole, 2-sulfide, 2-phenoxy-","Edmundson, 1983"
 35186-09-5,, C,8.44,PE,"Arsine, diethyl[3,3,3-trifluoro-1-(trifluoromethyl)-1-propenyl]-","Cullen, Frost, et al., 1972"
 33546-31-5,, C,9.2 ¡À 0.2,EI,"Silane, trifluoro[4-(dimethylsilyl)phenyl]-","Dube and Chvalovsky, 1974"
 454-57-9,, C,9.17,EI,"Silane, fluorodimethylphenyl-","Gey and Dube, 1976"
 22767-90-4,Vertical value, C,9.87 ¡À 0.07,PE,"2,4-Hexanedione, 1,1,1-trifluoro-5,5-dimethyl-","Evans, Hamnett, et al., 1972"
 12387-00-7,, C,7.3,EI,1-Methylaminoethylidenechromium pentacarbonyl,"Muller and Connor, 1969"
 67428-03-9,Vertical value, C,9.13,PE,"Nitrous acid, 2-phenylethyl-2,2-d2 ester","Houle and Beauchamp, 1978"
 23373-04-8,, C,8.08 ¡À 0.03,EI,"Acetamide, N-(2,4-dibromophenyl)-","Benezra and Bursey, 1972"
 33098-80-5,, C,8.32 ¡À 0.03,EI,"Acetanilide, 2',6'-dibromo-","Benezra and Bursey, 1972"
 696-26-4,Vertical value, C,8.67,PE,"Arsine,dimethylphenyl-","Schmidt, Schweig, et al., 1977"
 61542-19-6,Vertical value, C,9.52,PE,"Butanoic acid, 2-dichloroamino)-2-methylpropyl ester","Gerson, Worley, et al., 1978"
 121-69-7,LLK, C,7.15,PE,"Benzenamine, N,N-dimethyl-","Behan, Johnstone, et al., 1976"
 103-69-5,RDSH, C,7.56,CTS,"Benzenamine, N-ethyl-","Farrell and Newton, 1965"
 87-62-7,LLK, C,7.30 ¡À 0.02,PE,"2,6-Xylidine","Maier and Turner, 1973"
 108-75-8,Vertical value, C,8.9 ¡À 0.1,PE,"Pyridine, 2,4,6-trimethyl-","Ramsey and Walker, 1974"
 51-67-2,Vertical value, C,8.41 ¡À 0.12,PE,"Phenol, 4-(2-aminoethyl)-","Domelsmith, Munchausen, et al., 1977"
 156-43-4,, C,7.67 ¡À 0.15,EI,"Benzenamine, 4-ethoxy-","McLafferty and Schiff, 1969"
 621-33-0,, C,7.91 ¡À 0.15,EI,"Benzenamine, 3-ethoxy-","McLafferty and Schiff, 1969"
 24207-15-6,, C,7.75 ¡À 0.05,EI,"2(1H)-Pyridinethione, 1-ethyl-3-hydroxy-6-methyl-","Gronneberg and Undheim, 1972"
 131179-09-4,Unspecified conformer, C,8.5,PE,"7-Azabicyclo[2.2.1]heptene-7-carboxylic acid, methyl ester","Altenbach, Constant, et al., 1991"
 60399-02-2,Vertical value, C,8.18,PE,"Benzenemethanamine,2-hydroxy-N-methyl-","Fragala, Millefiori, et al., 1980"
 589-16-2,, C,7.6 ¡À 0.1,CTS,"Benzenamine, 4-ethyl-","Farrell and Newton, 1966"
 95-68-1,RDSH, C,7.4 ¡À 0.1,CTS,"Benzenamine, 2,4-dimethyl-","Farrell and Newton, 1966"
 64-04-0,LLK, C,8.5,PE,Benzeneethanamine,"Domelsmith, Munchausen, et al., 1977"
 578-54-1,, C,7.6 ¡À 0.1,CTS,"Benzenamine, 2-ethyl-","Farrell and Newton, 1966"
 95-64-7,Vertical value, C,7.68 ¡À 0.05,PE,"Benzenamine, 3,4-dimethyl-","Szepes, Distefano, et al., 1974"
 108-69-0,LLK, C,7.2,PE,"Benzenamine, 3,5-dimethyl-","Szepes, Distefano, et al., 1974"
 87-59-2,RDSH, C,7.5 ¡À 0.1,CTS,"Benzenamine, 2,3-dimethyl-","Farrell and Newton, 1966"
 103-67-3,RDSH, C,8.65,EI,"Benzenemethanamine, N-methyl-","Loudon, Maccoll, et al., 1970"
 95-78-3,LLK, C,7.2,PE,"Benzenamine, 2,5-dimethyl-","Szepes, Distefano, et al., 1974"
 19352-85-3,, C,7.5,EI,"Pyrrolidine,1-(1-buten-3-ynyl)-","Plotnikov, Bogolyubov, et al., 1969"
 611-21-2,LLK, C,7.27,PE,N-Methyl-o-toluidine,"Cowling and Johnstone, 1973"
 623-08-5,LLK, C,7.13,PE,"Benzenamine, N,4-dimethyl-","Cowling and Johnstone, 1973"
 696-68-4,Vertical value, C,7.43,PE,6-(Dimethylamino)fulvene,"Houk, George, et al., 1974"
 7129-31-9,Vertical value, C,8.36,PE,"9-Azabicyclo[4.2.1]nona-2,4-diene","Schmidt, Schweig, et al., 1974"
 56125-88-3,Vertical value, C,7.28,PE,"2-Azabicyclo[3.2.1]octa-3,6-diene,2-methyl)-","Barraclough, Bilgic, et al., 1979"
 13471-35-7,Vertical value, C,9.25 ¡À 0.05,PE,"Boronic acid,phenyl-dimethyl ester","Ramsey and O'Neill, 1977"
 672-66-2,LLK, C,7.58 ¡À 0.05,PI,Dimethylphenylphosphine,"Nakato, Chiyoda, et al., 1974"
 56535-52-5,Vertical value, C,8.8,PE,"Stannane, dimethyldipropyl-","Kochi, 1980"
 66363-02-8,Vertical value, C,8.56,PE,"Stannane, dimethylbis(1-methylethyl)-","Kochi, 1980"
 597-64-8,RDSH, C,10.3,EI,"Stannane, tetraethyl-","deRidder and Dijkstra, 1967"
 66737-21-1,LLK, C,7.92 ¡À 0.03,PI,"1-Thia-3-silacyclobutane, 3,3-diethyl-2,4-dimethyl-","Gusel'nikov, Volkova, et al., 1981"
 110-05-4,Vertical value; , C,8.78,PE,Di-tert-butyl peroxide,"Coughlin, Brown, et al., 1979"
 2211-92-9,LLK, C,8,PE,Di-tert-butyl sulfoxide,"Bock and Solouki, 1974"
 10495-45-1,LLK, C,9.54 ¡À 0.05,PI,Diisobutyl sulfone,"Evlasheva, Puchkova, et al., 1975"
 110-06-5,Vertical value; , C,8.15,PE,Di-tert-butyl disulfide,"Guimon, Guimon, et al., 1975"
 629-45-8,Vertical value; , C,8.51,PE,"Disulfide, dibutyl","Guimon, Guimon, et al., 1975"
 112-49-2,Vertical value; , C,9.8,PE,"2,5,8,11-Tetraoxadodecane","Baker, Armen, et al., 1983"
 544-40-1,LLK, C,8.2,PE,Butyl sulfide,"Wagner and Bock, 1974"
 592-65-4,LLK, C,8.32,CTS,"Propane, 1,1'-thiobis[2-methyl-","Aloisi, Santini, et al., 1974"
 107-47-1,LLK, C,8.2 ¡À 0.1,EI,Di-tert-butyl sulfide,"Distefano, Ricci, et al., 1974"
 24470-76-6,Vertical value; , C,8.3,PE,Bis(isobutyl)mercury,"Fehlner, Ulman, et al., 1976"
 3374-16-1, , C,7.8,PE,Bis(tert-butylthio)mercury,"Biscarini, Colonna, et al., 1981"
 15095-84-8,Vertical value, C,8.72,PE,"Stannane,cyclopentyltrimethyl-","Hosomi and Traylor, 1975"
 34232-11-6,Vertical value, C,9.72,PE,"Stannane, trimethyl-4-pentenyl-","Brown, Eaton, et al., 1974"
 29146-24-5,LLK, C,8.2,PE,Bis(tert-butyl)fluorophosphine,"Lappert, Pedley, et al., 1975"
 142-96-1,RDSH, C,9.28 ¡À 0.05,EI,n-Butyl ether,"Williams and Hamill, 1968"
 6163-66-2,LLK, C,8.81,PE,Di-tert-Butyl ether,"Brown, 1975"
 6863-58-7,LLK, C,9.11,EI,Di-sec-Butyl ether,"Holmes, Fingas, et al., 1981"
 53809-97-5,, C,7.33,PE,"Nickel, bis(methyl 2,2-dimethylhydrazinecarbodithioato)-","Cauletti, Tarli, et al., 1980"
 61012-98-4,Vertical value, C,7.69,PE,"Pyridazino[1,2-a][1,2,4,5]tetrazine,octahydro-2,3-dimethyl-","Rademacher, Breier, et al., 1979"
 65411-94-1,Vertical value, C,8.96,PE,"Silane, (1,2-dichloro-1,2-ethanediyl)bis(trimethyl-, (E)-","Ensslin, Schmidtke, et al., 1977"
 5756-43-4,, C,9.33,PI,"Hexane, 1-ethoxy-","Ahmmed, Hudson, et al., 1990"
 13716-10-4,LLK, C,8,PE,"Phosphinous chloride, bis(1,1-dimethylethyl)-","Lappert, Pedley, et al., 1975"
 28623-31-6,Vertical value; , C,8.52,PE,"1,3,2-Dioxaphospholan-2-amine, N,N-bis(1-methylethyl)-","Worley, Hargis, et al., 1982"
 78279-91-1,Vertical value, C,6.33,PE,"Pyrazine, 1,4-bis(dimethylsilyl)-1,4-dihydro-","Kaim, 1981"
 927-83-3,Vertical value; , C,8.2 ¡À 0.2,PE,"Diazene, bis(1,1-dimethylethyl)-","Bock, Wittel, et al., 1976"
 3896-19-3,Vertical value, C,8.2,PE,"Diazene, bis-(2-methylpropyl)","Houk, Chang, et al., 1975"
 38704-91-5,Vertical value, C,7.55,PE,"Pyridazine,hexahydro-1,2,3,6-tetramethyl,trans-","Nelsen, Peacock, et al., 1976"
 15199-21-0,Vertical value; , C,8.14 ¡À 0.10,PE,"4-N,N',N''-Tetramethyl-2,6,7-triaza-1-phosphabicyclo[2.2.2]octane-1-oxide","Cowley, Lattman, et al., 1982"
 2056-74-8,Vertical value, C,8.65,PE,"Sulfur diimide, bis(1,1-dimethylethyl)-","Kroner, Strack, et al., 1973"
 19413-36-6,Vertical value, C,7.7,PE,"Tin, bis(dimethylcarbamodithioato-s,s')dimethyl-","Cauletti, Nicotra, et al., 1980"
 68378-99-4,Vertical value, C,8.15,PE,"4,N,N',N""-Tetramethyl-2,6,7-triaza-1-phosphabicyclo[2.2.2]octane-1-selenide","Cowley, Lattman, et al., 1982"
 2406-25-9,LLK, C,6.77,PE,"Nitroxide, bis(1,1-dimethylethyl)","Morishima, Yoshikawa, et al., 1972"
 14418-26-9,LLK, C,6.8,PE,"4,N,N',N''-Tetramethyl-2,6,7-triaza-1-phosphabicyclo[2.2.2]octane","Cowley, Goodman, et al., 1977"
 15199-22-1,Vertical value; , C,8.14 ¡À 0.10,PE,"4,N,N',N''-Tetramethyl-2,6,7-triaza-1-phosphabicyclo[2.2.2]octane-1-sulfide","Cowley, Lattman, et al., 1982"
 55204-44-9,Vertical value, C,8.33,PE,"Diazene, bis(1-methoxy-1-methylethyl)-, (E)-","Houk, Chang, et al., 1975"
 26171-64-2,Vertical value, C,7.76,PE,"Pyridazine,hexahydro-1,2,3,6-tetramethyl,cis-","Nelsen, Peacock, et al., 1976"
 60678-82-2,LBLHLM, C,6.59 ¡À 0.05,EQ,"1,2-Diazacyclohexane, 1,2-diethyl-","Rumack, 1986"
 95552-76-4, , C,7.8,PE,Di-tert-butylphosphazene,"Elbel, Ellis, et al., 1985"
 67092-87-9,Vertical value, C,7.6,PE,"1,2-Diazetidine,1,2-bis(1-methylethyl)-trans","Nelsen, Peacock, et al., 1978"
 60678-76-4,LBLHLM, C,6.67 ¡À 0.05,EQ,"1H-Azepin-1-amine, hexahydro-N,N-dimethyl-","Rumack, 1986"
 38788-38-4,Vertical value, C,7.57,PE,"Tellurium, dibutyl-","Sinegovskaya, Tatarinova, et al., 1991"
 629-35-6,Vertical value; , C,8.35,PE,Mercury di-n-butyl,"Fehlner, Ulman, et al., 1976"
 23587-90-8,Vertical value, C,7.57,PE,"Mercury, bis(1,1-dimethylethyl)-","Fehlner, Ulman, et al., 1976"
 6207-41-6,Vertical value, C,9.2,PE,"Germane, ethenyltriethyl-","Schweig, Weidner, et al., 1973"
 597-63-7,LLK, C,8.9,PE,Tetraethylgermanium,"Schweig, Weidner, et al., 1973"
 16596-38-6,, C,7.73 ¡À 0.05,PE,"Hydrazine, 1,1-bis(2-methylpropyl)-","Vovna, Vilesov, et al., 1975"
 56580-70-2,Vertical value, C,8.06,PE,"Stannane, 1,2-ethanediylbis[trimethyl-","Hosomi and Traylor, 1975"
 56920-20-8,Vertical value, C,9.01 ¡À 0.05,PE,"Oxirane, 2,2-di(trimethylsilyl)-","Block, Yencha, et al., 1988"