CAS,Comment,Formula,IE,Method,Name,Refer
 22921-10-4,Vertical value, C,8.09,PE,"Benzene,1-methyl-4-(1-methylethoxy)-","Dewar, Ernstbrunner, et al., 1974"
 33426-60-7,Vertical value, C,8.24,PE,"Benzene,1-methyl-2-(1-methylethoxy)-","Friege and Klessinger, 1979"
 14781-45-4,RDSH, C,9.86 ¡À 0.05,EI,Cupric trifluoroacetylacetonate,"Reichert, Bancroft, et al., 1970"
 19648-82-9,Vertical value, C,10.39 ¡À 0.07,PE,"Beryllium,bis(1,1,1,5,5,5-hexafluoro-2,4-pentanedionato-o,o')-","Evans, Hamnett, et al., 1972"
 41766-80-7,LBLHLM, C,7.7,PE,"Triosmium, decacarbonyl dihydride","Sherwood and Hall, 1982"
 89-32-7,, C,12.19 ¡À 0.02,PI,Pyromellitic dianhydride,"Gorodyskii, Pozdnyakov, et al., 1974"
 102-54-5,T = 350K; , C,6.82,EQ,Ferrocene,"Ryan, Eyler, et al., 1992"
 75589-83-2,Vertical value, C,7,PE,"Ethanamine, N,N-dimethyl-1-(phenylphosphinidene)-","Zverev and Ionkin, 1991"
 15093-36-4,, C,7.90 ¡À 0.05,EI,"Thiourea, N-(1-methylethyl)-N'-phenyl-","Baldwin, Loudon, et al., 1976"
 1775-83-3,RDSH, C,7.75 ¡À 0.02,EI,"Diazene,(1,1-dimethylethyl)phenyl-","Seidl, Bock, et al., 1970"
 40674-86-0,Vertical value, C,7.78,PE,"Iron,tricarbonyl[(1,2,3,4-¦Ç)-1,3-cycloheptadiene]-","Green, Powell, et al., 1976"
 42535-31-9, , C,7.4,PE,"Iron, ¦Ç","Guimon, Pfister-Guillouzo, et al., 1985"
 59-26-7,LLK, C,8.65,PE,Nikethamide,"Dougherty, Younathan, et al., 1978"
 1202-62-6,, C,6.9 ¡À 0.1,EI,"Methanimidamide, N'-(4-methoxyphenyl)-N,N-dimethyl-","Kuschel and Grutzmacher, 1974"
 19895-44-4,, C,8.20 ¡À 0.05,EI,"Urea,N-(1-methylethyl)-N'-phenyl-","Baldwin, Loudon, et al., 1976"
 31857-42-8,LBLHLM, C,8.3,PE,"Cyclobuta[1,2-c:4,3-c']dipyridine","Yamaguchi, Higashi, et al., 1985"
 259-84-7, , C,7.7,PE,"Cyclobuta[1,2-b:4,3-b']dipyridine","Yamaguchi, Higashi, et al., 1985"
 2427-06-7,Vertical value, C,6.85,PE,"Quinoxaline, 1,2,3,4-tetrahydro-1,4-dimethyl-","Nelsen, Grezzo, et al., 1981"
 34000-48-1,Vertical value, C,8.28,PE,"Diazene, tert-butyl-phenyl","Engel, Gerth, et al., 1988"
 103021-44-9, , C,7.8,PE,"3H-1,4,6-Ethanylylidene-2H-1,2a-diazacyclopenta[cd]pentalene, hexahydro-","Werstiuk, Butler, et al., 1986"
 66102-39-4,Vertical value, C,6.95,PE,"5,8-Dimethyl-1,2,3,4-tetrahydroquinoxaline","Nelsen, Grezzo, et al., 1981"
 82027-08-5,Vertical value; , C,7.1,PE,p-Dimethylaminophenyl aziridine,"Crimaldi, Lichter, et al., 1982"
 71014-81-8,Vertical value, C,8.75,PE,"Diaziridine, 2-benzyl-3,3-dimethyl-","Klasinc, Mannschreck, et al., 1994"
 10579-68-7,Vertical value, C,6.88,PE,"Quinoxaline, 1,2,3,4-tetrahydro-6,7-dimethyl-","Nelsen, Grezzo, et al., 1981"
 38960-10-0,Vertical value, C,7.97,PE,"Iron,dicarbonyl(¦Ç","Fabian, Fehlner, et al., 1980"
 52124-51-3,Vertical value, C,6.92 ¡À 0.02,PE,"Iron, bis(¦Ç","Lichtenberger and Copenhaver, 1990"
 78805-16-0,LLK, C,7.2,PE,o-Isopropylselenotoluene,"Baker, Armen, et al., 1981"
 14949-69-0,Vertical value, C,9.35,PE,"bis(1,1,1,5,5,5-hexafluoropentane-2,4-dionato-O,O')nickel","Brittain and Disch, 1975"
 19648-85-2,Vertical value, C,10.28,PE,Magnesium hexafluoroacetylacetonate,"Brittain and Disch, 1975"
 28736-68-7,, C,9.7 ¡À 0.1,EI,"Bis(1,1,1,5,5,5-hexafluoro-2,4-pentanedionato)iron","Reichert, Bancroft, et al., 1970"
 16919-46-3,Vertical value, C,9.1,PE,"Tin(IV)chloride bis(2,4-pentanedionate)","Fragala, Ciliberto, et al., 1979"
 33673-34-6,Vertical value, C,9.02,PE,"Adamantane, 2-chloro-2-nitroso-","Egdell, Green, et al., 1975"
 74483-17-3,, C,8.3,PE,"1-Phosphaethylene, 1-chloro-2-phenyl-2-(trimethylsilyl)-","Solouki, Bock, et al., 1982"
 78805-18-2,Vertical value, C,8.3,PE,"Benzene, 2-ethylseleno-1,3-dimethyl-","Baker, Armen, et al., 1981"
 14949-70-3,RDSH, C,10.07 ¡À 0.05,EI,"Zinc, bis(hexafluoroacetylacetonato)-","Reichert, Bancroft, et al., 1970"
 67316-66-9,Vertical value, C,10.05,PE,"Uranium, bis(1,1,1,5,5,5-hexafluoro-2,4-pentanedionato-o,o')-dioxo-","Fragala, Condorelli, et al., 1978"
 10210-64-7,LLK, C,8.1,PE,"Beryllium, bis(2,4-pentanedionato-O,O')-, (T-4)-","Evans, Hamnett, et al., 1972"
 14024-58-9,LBLHLM, C,7,PE,Bis(acetylacetonato)manganese,"Kitagawa, Morishima, et al., 1983"
 27490-21-7,, C,8.39,CTS,"1H-2-Benzogermole,2,3-dihydro-2,2-dimethyl-","Pitt, 1970"
 99-87-6, , C,8.29,PE,p-Cymene,"Howell, Goncalves, et al., 1984"
 14024-17-0,RDSH, C,7.50 ¡À 0.04,EI,Bis(acetylacetonate)iron,"Holtzclaw, Lintvedt, et al., 1969"
 10170-78-2,Vertical value, C,7.2,PE,"Cobalt, bis(2,4-pentanedithionato-s,s')-","Cauletti, Furlani, et al., 1980"
 22500-95-4,, C,8.45 ¡À 0.04,EI,"2,6-Disilahept-3-ene, 2,2,6,6-tetramethyl-5-methylene-, (E)-","Bock and Seidl, 1968"
 14024-48-7,LBLHLM, C,7.6,PE,Bis(acetylacetonato)cobalt,"Kitagawa, Morishima, et al., 1983"
 21752-78-3,, C,8.85 ¡À 0.04,EI,"1,4-Bis(trimethylsilyl)-2-butyne","Bock and Seidl, 1968"
 2243-62-1,LLK, C,6.74 ¡À 0.02,PE,"1,5-Naphthalenediamine","Maier, 1974"
 23523-21-9,Vertical value, C,7.5,PE,"Cobalt, bis(4-thioxo-2-pentanonato-o,s)-, cobalt complex","Cauletti, Furlani, et al., 1980"
 18081-31-7,, C,8.45 ¡À 0.04,EI,"2,5-Disilahex-3-ene, 2,2,5,5-tetramethyl-3-vinyl-, (E)-","Bock and Seidl, 1968"
 22430-47-3,, C,8.43 ¡À 0.04,EI,"2,7-Disilaocta-3,5-diene, 2,2,7,7-tetramethyl-, (E,E)-","Bock and Seidl, 1968"
 13395-16-9,LBLHLM, C,7.2,PE,"Copper, bis(2,4-pentanedionato-O,O')-, (SP-4-1)-","Kitagawa, Morishima, et al., 1983"
 90590-96-8,Vertical value, C,7.12 ¡À 0.02,PE,"Ruthenium, bis(¦Ç","Lichtenberger and Copenhaver, 1990"
 51944-68-4,, C,9.1 ¡À 0.1,EI,"2-Butenamide,N-(4-nitrophenyl)-","Mathar, Bohlmann, et al., 1973"
 27821-98-3,Vertical value, C,7.65,PE,"Copper, bis(4-thioxo-2-pentanonato-o,s)-","Cauletti, Furlani, et al., 1980"
 89-25-8,, C,7.7,PE,"3H-Pyrazol-3-one, 2,4-dihydro-5-methyl-2-phenyl-","Vondrak, Bastl, et al., 1988"
 209-22-3,LLK, C,7.1,PE,"Naphtho[1,8-cd]-1,2-dithiole","Bock, Brahler, et al., 1981"
 70656-87-0,, C,7.8,PE,"3H-1,4-Benzodiazepin-2-one, 1,2-dihydro-5-methyl-","Andronati, Khvostenko, et al., 1989"
 64869-35-8,Vertical value; , C,7.14,PE,"Naphtho[1,8-cd]-1,2-thiaselenole","Bock, Brahler, et al., 1981"
 74910-62-6,LBLHLM, C,6.6,PE,Bis(¦Ç,"Gleiter, Bohm, et al., 1984"
 64869-36-9, , C,6.8,PE,"Naphtho[1,8-cd]-1,2-tellurathiole","Bock, Brahler, et al., 1981"
 3968-63-6,LLK, C,8,PE,"Naphtho[1,8-bc]thiete","Bock, Brahler, et al., 1981"
 81751-58-8, , C,6.8,PE,Bis(¦Ç,"Bohm and Gleiter, 1982"
 2052-06-4,, C,6.96,CTS,"4-Bromo-N,N-diethylaniline","Farrell and Newton, 1965"
 14239-84-0,Vertical value, C,7,PE,"Nickel,bis(4-thioxo-2-pentanonato-o,s)-","Cauletti, Furlani, et al., 1980"
 3264-82-2,RDSH, C,8.23 ¡À 0.05,EI,Nickel acetylacetonate,"Reichert and Westmore, 1969"
 14658-94-7,Vertical value, C,7.45,PE,"Azulene,1,3-dichloro-","Dougherty, Lewis, et al., 1980"
 1762-41-0,LBLHLM, C,8.8,PE,"4,4'-Dichloro-2,2'-bipyridine","Dobson, Hillier, et al., 1983"
 10170-79-3,Vertical value, C,6.9,PE,"Nickel,bis(2,4-pentanedithionato-s,s')-","Cauletti, Furlani, et al., 1980"
 33306-54-6,LL, C,7.25 ¡À 0.05,PI,"Ferrocene, 1,1',2,2'-tetrachloro-","Barfuss, Emrich, et al., 1990"
 95-93-2,LLK, C,8.07,PE,"Benzene, 1,2,4,5-tetramethyl-","Santiago, Gandour, et al., 1978"
 104-51-8,LLK, C,8.68,EI,"Benzene, n-butyl-","McLoughlin, Morrison, et al., 1979"
 135-98-8,LLK, C,8.68,EI,"Benzene, (1-methylpropyl)-","McLoughlin, Morrison, et al., 1979"
 98-06-6,LBLHLM, C,8.69,PI,"Benzene, tert-butyl-","Domnin, Lakshin, et al., 1985"
 527-53-7,RDSH, C,8.47 ¡À 0.05,EI,"Benzene, 1,2,3,5-tetramethyl-","Meyer and Harrison, 1964"
 141-93-5,LLK, C,8.49 ¡À 0.01,EQ,"Benzene, 1,3-diethyl-","Lias and Ausloos, 1978"
 538-93-2,LLK, C,8.68,EI,"Benzene, (2-methylpropyl)-","McLoughlin, Morrison, et al., 1979"
 105-05-5,LLK, C,8.4,PE,"Benzene, 1,4-diethyl-","Bock, Kaim, et al., 1978"
 488-23-3,LBLHLM, C,8.14,PE,"Benzene, 1,2,3,4-tetramethyl-","Howell, Goncalves, et al., 1984"
 1433-65-4,Vertical value, C,9.2,PE,"1,3-Thiazine-6-one-4-ol, 2-(4-chlorophenyl)-","Yakovlev, Mironova, et al., 1987"
 1861-32-1,, C,9.57,EI,DCPA,"Kuhn, Levins, et al., 1968"
 135-01-3,RDSH, C,8.51,CTS,"Benzene, 1,2-diethyl-","Pitt, 1970"
 52875-49-7,Vertical value, C,7.1,PE,"Naphtho[1,8-cd]-1,2-ditellurole","Bock, Brahler, et al., 1981"
 96280-42-1,, C,7.99 ¡À 0.03,PE,"Iridium, tetracarbonylbis[¦Ì-(1H-pyrazolato-N","Lichtenberger, Copenhaver, et al., 1988"
 935-14-8,LLK, C,8.58 ¡À 0.02,PE,"1,4-Diethynylbenzene","Brogli, Heilbronner, et al., 1975"
 73138-26-8,T = 350K; , C,6.18,EQ,Manganocene,"Ryan, Eyler, et al., 1992"
 14658-95-8,Vertical value, C,7.4,PE,"Azulene,1,3-dibromo-","Dougherty, Lewis, et al., 1980"
 54039-37-1,Vertical value, C,6.4 ¡À 0.1,PE,"Tantalum, bis(¦Ç","Van Dam, Terpstra, et al., 1981"
 12793-14-5,Vertical value, C,6.8,PE,Niobocene dichloride,"Van Dam, Terpstra, et al., 1981"
 1271-19-8,RDSH, C,8.98 ¡À 0.16,EI,Titanocene dichloride,"Dillard and Kiser, 1969"
 1291-32-3,RDSH, C,9.37 ¡À 0.25,EI,Bis(cyclopentadienyl)zirconium dichloride,"Dillard and Kiser, 1969"
 12116-66-4,Vertical value; , C,8.9 ¡À 0.1,PE,Bis(cyclopentadienyl)hafnium dichloride,"Cauletti, Clark, et al., 1980"
 52115-81-8,Vertical value, C,8.42,PE,"1H-Imidazole,2-[(2,6-dichlorophenyl)methyl]-4,5-dihydro-","De Jong and van Dam, 1979"
 1785-61-1,LLK, C,8.82 ¡À 0.02,PE,"1,3-Diethynylbenzene","Brogli, Heilbronner, et al., 1975"
 12282-08-5,, C,7.80 ¡À 0.05,EI,"Cobalt,(2-butyne)hexacarbonyldi-","Gambino, Vaglio, et al., 1974"
 21792-52-9,LLK, C,8.69 ¡À 0.02,PE,"1,2-Diethynylbenzene","Brogli, Heilbronner, et al., 1975"
 42612-73-7,, C,8.7 ¡À 0.1,EI,Bis(cyclopentadienyl)ytterbium chloride,"Muller, 1969"
 95642-53-8,Vertical value, C,8.76,PE,"1,3-Thiazine-6-one-4-ol, 2-(4-bromophenyl)-","Yakovlev, Mironova, et al., 1987"
 475-38-7,, C,8.20 ¡À 0.02,PI,"1,4-Naphthalenedione, 5,8-dihydroxy-","Potapov and Sorokin, 1971"
 83-72-7,LL, C,9.2,PE,"1,4-Naphthalenedione, 2-hydroxy-","Millefiori, Gulino, et al., 1990"
 130-15-4,LL, C,9.4,PE,"1,4-Naphthalenedione","Millefiori, Gulino, et al., 1990"
 481-39-0,LL, C,8.6,PE,Juglone,"Millefiori, Gulino, et al., 1990"
 66929-86-0,Vertical value, C,9.20 ¡À 0.05,PE,Tricyclo[4.2.1.0,"Martin, Heller, et al., 1977"
 36439-79-9,Vertical value, C,8.37,PE,"Bicyclo[2.2.2]octane,2,3-bis(methylene)-","Asmus and Klessinger, 1974"
 77614-69-8,LLK, C,8.7,PE,"Bicyclo[6.2.0]deca-2,6-diene,cis-","Bischof, Gleiter, et al., 1981"
 53862-36-5,Vertical value, C,9.20 ¡À 0.03,PE,"Tetracyclo[5.2.1.0<sup>2,6</sup>.0<sup>3,5</sup>]decane,(1&#945;,2&#945;,3&#946;,5&#946;,6&#945;,7&#945;)-","Martin, Kagabu, et al., 1974"
 62279-36-1,Vertical value, C,9,PE,Tetracyclo[7.1.0.0,"Spanget-Larsen, Gleiter, et al., 1978"
 62279-40-7,Vertical value, C,8.8,PE,Tetracyclo[7.1.0.0,"Spanget-Larsen, Gleiter, et al., 1978"
 62279-35-0,Vertical value, C,8.88,PE,Tetracyclo[7.1.0.0,"Spanget-Larsen, Gleiter, et al., 1978"
 16387-71-6,, C,8.72,PE,"4,6-Decadiyne","Heilbronner, Jones, et al., 1977"
 64096-75-9,, C,8.87,PE,"1H-Cyclobuta[cd]pentalene,octahydro-1-methylene-","Domelsmith, Houk, et al., 1978"
 34511-84-7,Vertical value, C,9.4,PE,Tetracyclo[5.3.0.0,"Spanget-Larsen, Gleiter, et al., 1980"
 14995-50-7,, C,8.27,PE,"Bicyclo[2.2.1]hept-2-ene,7-(1-methylethylidene)-","Heilbronner and Martin, 1972"
 53143-76-3,Vertical value; , C,8.48,PE,Dispiro[2.0.2.4]dec-7-ene,"deMeijere, 1974"
 31039-75-5,, C,7.95,PE,Tricyclo[3.3.2.0,"Bischof, Gleiter, et al., 1970"
 52943-99-4,Vertical value, C,~8.9,PE,"Bicyclo[3.2.1]octane,2,4-bis(methylene)-","Martin, Heller, et al., 1980"
 37706-26-6,Vertical value, C,9,PE,Tricyclo[4.2.2.0,"Bruckmann and Klessinger, 1972"
 1294-75-3,LBLHLM, C,7.2,PE,Stannocene,"Baxter, Cowley, et al., 1982"
 38274-75-8,, C,8.12,CTS,"Silane,1-naphthalenyl-","Pitt, 1973"
 1287-13-4,T = 350K; , C,~7.2,EQ,"Ruthenium, bis(¦Ç","Ryan, Eyler, et al., 1992"
 41550-67-8,Vertical value, C,7.96,PE,"Ruthenium,tricarbonyl[(1,2,3,4-¦Ç)-1,3-cycloheptadiene]-","Green, Powell, et al., 1976"
 1011-54-7,LBLHLM, C,8.5,EI,(E)-3-(2-Methoxyphenyl)-2-propenoic acid,"Schaldach, 1984"
 70445-88-4,Vertical value; , C,8.4,PE,"2,3-Dimethylbenzothiophene sulfoxide","Bened, Durand, et al., 1982"
 14818-53-2,Vertical value, C,8.59 ¡À 0.05,PE,"Acetamide,N-(3,5-dimethylphenyl)-2,2,2-trifluoro-","Szepes, Distefano, et al., 1974"
 25771-21-5,Vertical value; , C,9.38,PE,"N,N-Dimethyl-p-trifluorobenzamide","Gal, Geribaldi, et al., 1985"
 14719-31-4,Vertical value, C,8.62 ¡À 0.05,PE,"Acetamide,N-(2,3-dimethylphenyl)-2,2,2-trifluoro-","Szepes, Distefano, et al., 1974"
 14618-47-4,Vertical value, C,8.56 ¡À 0.05,PE,"Acetamide,N-(2,4-dimethylphenyl)-2,2,2-trifluoro-","Szepes, Distefano, et al., 1974"
 7497-27-0,Vertical value, C,8.99 ¡À 0.05,PE,"Acetamide,N-(2,6-dimethylphenyl)-2,2,2-trifluoro-","Szepes, Distefano, et al., 1974"
 14618-48-5,Vertical value, C,8.70 ¡À 0.05,PE,"Acetamide,N-(2,5-dimethylphenyl)-2,2,2-trifluoro-","Szepes, Distefano, et al., 1974"
 1271-31-4,, C,7.62 ¡À 0.09,EI,Bis(cyclopentadienyl)ytterbium,"Thomas and Hayes, 1970"
 1277-47-0,Unpublished results of D.L. Lichtenberger and M.E.Rempe; , C,6.75,PE,Bis(¦Ð-cyclopentadienyl)vanadium,"Ryan, Eyler, et al., 1992"
 1294-67-3,Vertical value, C,8.9 ¡À 0.1,PE,Zirconium dibromobis(¦Ç,"Cauletti, Clark, et al., 1980"
 69005-97-6,Vertical value, C,6.4 ¡À 0.1,PE,"Tantalum,dibromobis(¦Ç","Cauletti, Clark, et al., 1980"
 1293-73-8,Vertical value; , C,8.03,PE,Bis(¦Ç,"Bohm, 1982"
 120-61-6,RDSH, C,9.78 ¡À 0.03,EI,"1,4-Benzenedicarboxylic acid, dimethyl ester","Kuhn, Levins, et al., 1968"
 31811-41-3, , C,6.6,PE,"Tungsten, dicarbonyl(¦Ç5-2,4-cyclopentadien-1-yl)(¦Ç3-2-propenyl)-","Worley, Gibson, et al., 1981"
 1009-61-6,Vertical value; , C,9.61,PE,"Ethanone, 1,1'-(1,4-phenylene)bis-","Gal, Geribaldi, et al., 1985"
 93-91-4,LL, C,9.1,EI,"1,3-Butanedione, 1-phenyl-","Orlov, Rashkes, et al., 1988"
 60526-38-7,LLK, C,8,PE,"Bicyclo[2.2.1]hept-5-ene-2,3-dione,7-(1-methylethylidene)","Dougherty, Blankespoor, et al., 1979"
 94499-49-7,Vertical value; , C,9.25,PE,Tricyclo[6.2.0.0,"Gleiter, Jahne, et al., 1985"
 72590-52-4,Vertical value; , C,9.02,PE,Tricyclo[4.2.2.0,"Albert, Heller, et al., 1985"
 939-57-1,LBLHLM, C,8.65,EI,(E)-3-(2-Methylphenyl)-2-propenoic acid,"Schaldach, 1984"
 1459-93-4,RDSH, C,9.84 ¡À 0.09,EI,"1,3-Benzenedicarboxylic acid, dimethyl ester","Kuhn, Levins, et al., 1968"
 131-11-3,RDSH, C,9.64 ¡À 0.07,EI,Dimethyl phthalate,"Kuhn, Levins, et al., 1968"
 1298-41-5,Vertical value, C,8.1 ¡À 0.1,PE,"Zirconium,bis(¦Ç","Cauletti, Clark, et al., 1980"
 130720-66-0, , C,10,PE,"Spirocyclopentane-2-(1,5,6-triazabicyclo[3.1.0]hexane), 4,4,6-tris(trifluoromethyl)-","Kaupp and Dohle, 1988"
 309-89-7,Vertical value; , C,8.1,PE,"Titanium, bis(cyclopentadienyl)difluoride-","Bohm, 1982"
 12152-92-0,Vertical value, C,8.0 ¡À 0.1,PE,"Titanium,bis(¦Ç","Cauletti, Clark, et al., 1980"
 122-57-6,LLK, C,8.8,EI,"3-Buten-2-one, 4-phenyl-","Schaldach, Grotemeyer, et al., 1981"
 15719-09-2,, C,8.72,PE,Bullvalone,"Bodor, Dewar, et al., 1970"
 53011-99-7,, C,8.6,PE,"7-Oxabicyclo[2.2.1]heptane, 2,3,5,6-tetramethylidene-","Roser, Carrupt, et al., 1990"
 20452-67-9,, C,7.94,EI,"1-Buten-1-one,2-phenyl-","Compernolle and DeSchryver, 1975"
 1294-74-2,Vertical value; , C,7.55,PE,Plumbocene,"Baxter, Cowley, et al., 1982"
 1273-81-0,LL, C,~7.0,EQ,Osmocene,"Ryan, Eyler, et al., 1992"
 1284-72-6, , C,8.0 ¡À 0.1,EI,"Magnesium, bis(¦Ç","Begun and Compton, 1973"
 12083-67-9,Vertical value, C,8.4 ¡À 0.1,PE,Mercurocene,"Cradock and Duncan, 1978"
 1277-43-6,LLK, C,5.7 ¡À 0.2,EI,Cobaltocene,"Begun and Compton, 1973"
 1271-24-5,LLK, C,5.5,PE,bis(¦Ç,"Rabalais, Werme, et al., 1972"
 37048-03-6,Vertical value, C,7.45,PE,"Beryllium,2,4-cyclopentadien-1-yl(¦Ì","Gleiter, Bohm, et al., 1979"
 1271-28-9,T = 350K; , C,6.24,EQ,Nickelocene,"Ryan, Eyler, et al., 1992"
 40307-11-7,, C,8.42,PI,"Benzene, 1-ethyl-4-ethynyl-","Domnin, Lakshin, et al., 1985"
 447-53-0,LBLHLM, C,8.14,EI,"Naphthalene, 1,2-dihydro-","Dass and Gross, 1983"
 767-59-9,LBLHLM, C,8.27,EI,"1H-Indene, 1-methyl-","Dass and Gross, 1983"
 16520-62-0,LLK, C,8.5,EI,3-Butynylbenzene,"Koppel, Schwarz, et al., 1974"
 105-06-6,Vertical value, C,8.11,PE,"Benzene, 1,4-diethenyl-","Heilbronner and Jones, 1978"
 12128-87-9, , C,6.8,PE,"Molybdenum, dicarbonyl(¦Ç5-2,4-cyclopentadien-1-yl)(¦Ç3-2-propenyl)-","Worley, Gibson, et al., 1981"
 1005-51-2,RDSH, C,8.13,PE,Bullvalene,"Bodor, Dewar, et al., 1970"
 622-76-4,LBLHLM, C,8.3,PI,"Benzene, 1-butynyl-","Domnin, Lakshin, et al., 1985"
 767-60-2,LBLHLM, C,7.97,PI,"1H-Indene, 3-methyl-","Domnin, Lakshin, et al., 1985"
 26934-61-2,Vertical value, C,8.8 ¡À 0.2,PE,"1,2,3-Metheno-1H-cycloprop[cd]indene,2,2a,2b,3,5a,5b-hexahydro-","Martin, Heller, et al., 1974"
 2288-18-8,LBLHLM, C,8.19,EI,"Benzene, (1-methylene-2-propenyl)-","Dass and Gross, 1983"
 1515-78-2,, C,8.39,PE,"Benzene, 1,3-butadienyl-","Rucker, Lang, et al., 1980"
 58436-35-4,LLK, C,8.18,PE,Tricyclo[6.2.0.0,"Santiago, Gandour, et al., 1978"
 65051-83-4,LBLHLM, C,8.29,PI,"Benzene, (1-methyl-2-cyclopropen-1-yl)-","Domnin, Lakshin, et al., 1985"
 38898-39-4,Vertical value, C,8.25,PE,"Bicyclo[4.2.1]nona-2,4,7-triene,9-methylene-","Reetz, Hoffmann, et al., 1973"
 13938-73-3,LBLHLM, C,8.26,EI,"1,3-Methano-1H-indene, 2,3-dihydro-","Dass and Gross, 1983"
 5603-34-9,, C,8.34 ¡À 0.05,PE,Pentacyclo[4.4.0.0,"Boyd, Bunzli, et al., 1976"
 6675-71-4,, C,8.06,PE,Tricyclo[5.2.1.0,"Bohm, Carr, et al., 1980"
 6053-74-3,LLK, C,8.6,PE,"2a,4a,6a,6b-Tetrahydrocyclopenta[cd]pentalene","Bunzli, Frost, et al., 1973"
 16939-57-4,LBLHLM, C,8.06 ¡À 0.07,EI,"(E)-1-Phenyl-1,3-butadiene","Dass and Gross, 1983"
 57497-13-9,Vertical value, C,8.23 ¡À 0.02,PE,"Benzene,1-methyl-2-(1-propynyl)-","Carlier and Mouvier, 1979"
 31915-94-3,LBLHLM, C,8.39,EI,"1-Phenyl-1,3-butadiene(Z)","Dass and Gross, 1983"
 33598-22-0,LLK, C,8.6,EI,2-Butynylbenzene,"Koppel, Schwarz, et al., 1974"
 1194-56-5,LBLHLM, C,8.28,EI,1-Methyleneindan,"Dass and Gross, 1983"
 34324-40-8,Vertical value, C,8.44,PE,Tetracyclo[5.3.0.0,"Spanget-Larsen, Gleiter, et al., 1980"
 3365-26-2,LBLHLM, C,8.24,EI,"Benzene, 1-cyclobuten-1-yl-","Dass and Gross, 1983"
 22433-39-2,Vertical value, C,8.07,PE,"Benzene,1-methyl-1,2-propadienyl-","Runge, Kosbahn, et al., 1975"
 2749-93-1,Vertical value, C,8.13 ¡À 0.02,PE,"Benzene, 1-methyl-4-(1-propynyl)-","Carlier and Mouvier, 1979"
 4572-17-2,LBLHLM, C,8.3,PE,Hexacyclo[4.4.0.0,"Honegger, Eaton, et al., 1982"
 2327-98-2,Vertical value, C,8.15,PE,"Benzene,1,2-butadienyl-","Runge, Kosbahn, et al., 1975"
 33840-23-2,Vertical value, C,8.5,PE,Hexacyclo[4.4.0.0,"Spanget-Larsen, Gleiter, et al., 1979"
 1610-51-1,LLK, C,8.17,PE,Tricyclo[6.2.0.0,"Santiago, Gandour, et al., 1978"
 64096-73-7,, C,8.8,PE,"1H-Cyclobuta[cd]pentalene,1a,3a,5a,5b-tetrahydro-1-methylene-","Domelsmith, Houk, et al., 1978"
 16017-30-4,Vertical value, C,8.31 ¡À 0.02,PE,"Benzene,1-ethynyl-2,4-dimethyl-","Carlier and Mouvier, 1979"
 64630-96-2,Vertical value, C,9,PE,"1,2-Methanodicyclopropa[cd,gh]pentalene,octahydro-3-methylene-","Bischof, Bohm, et al., 1978"
 20211-64-7,LBLHLM, C,8.42,EI,3-Phenylcyclobutene,"Dass and Gross, 1983"
 68846-65-1,LBLHLM, C,8.34,EI,2-Methyleneindan,"Dass and Gross, 1983"
 51698-73-8,Vertical value, C,8.33 ¡À 0.03,PE,"Bicyclo[2.2.2]octa-2,5-diene,7,8-bis(methylene)-","Pfeffer, Klessinger, et al., 1975"
 18826-62-5,Vertical value, C,8.26 ¡À 0.02,PE,"Benzene,1-methyl-3-(1-propynyl)-","Carlier and Mouvier, 1979"
 129823-94-5,, C,7.75,EI,"5,5'-Bicyclopentadienyl","Schissel, McAdoo, et al., 1968"
 77614-70-1, , C,7.8,PE,"Diphosphirane, 1,2-bis(1,1-dimethylethyl)-3-methyl-","Gleiter, Bohm, et al., 1981"
 10284-49-8,Vertical value, C,8.3,PE,"Mercury, bis(2,2-dimethylpropyl)-","Fehlner, Ulman, et al., 1976"
 78279-90-0, , C,5.2,PE,"Pyrazine, 1,4-bis(trimethylgermyl)-1,4-dihydro-","Kaim, 1981"
 124-18-5,LL, C,9.73,EST,Decane,"Luo and Pacey, 1992"
 103678-18-8, , C,5.8,PE,"1,3-Diphosphacyclobutadiene, 1,1,3,3-tetra(dimethylamino)-","Veszpremi, Gleiter, et al., 1988"
 31639-80-2,Vertical value; , C,6.16,PE,"Pyrazine, 1,4-dihydro-1,4-bis(trimethylsilyl)-","Kaim, 1985"
 60678-80-0,LBLHLM, C,6.32 ¡À 0.05,EQ,"1,2-Diazacyclohexane, 1,2,3,3,6,6-hexamethyl-","Rumack, 1986"