CAS,Comment,Formula,IE,Method,Name,Refer
 81-88-9,, C,6.70 ¡À 0.05,PE,Rhodamine B,"Timoshenko, Korkoshko, et al., 1981"
 190-39-6,LLK, C,6.3,PE,"Phenanthro[1,10,9,8-opqra]perylene","Clar and Schmidt, 1977"
 190-70-5, , C,7.08,PE,Benzo[a]coronene,"Clar and Schmidt, 1977"
 190-71-6,, C,6.92 ¡À 0.04,PE,"Benzo[pqr]naphtho[8,1,2-bcd]perylene","Boschi, Clar, et al., 1974"
 1055-26-1,Vertical value, C,6.9,PE,"Azulene, 1,2,3-triphenyl-","Dougherty, Lewis, et al., 1980"
 30983-56-3,, C,8.39 ¡À 0.05,EI,"Bis(1-(2-naphthyl)-4,4,4-trifluoro-1,3-butanedionato)copper","Reichert and Westmore, 1970"
 385-14-8,, C,7,PE,"Benzo[p]naphtho[1,8,7-ghi]chrysene","Clar and Schmidt, 1979"
 196-45-2,, C,6.57,PE,"Naphtho[2,1,8-uva]pentacene","Clar and Schmidt, 1979"
 197-74-0,RDSH, C,7.11,CTS,"Dibenzo[fg,qr]pentacene","Briegleb, 1964"
 192-47-2,LLK, C,6.99,PE,"Dibenzo(h,rst)pentaphene","Clar and Schmidt, 1979"
 191-87-7,RDSH, C,6.7,CTS,"Dibenzo[a,j]perylene","Briegleb, 1964"
 193-11-3,, C,6.95,PE,"Dibenzo[de,uv]pentacene","Clar and Schmidt, 1979"
 191-20-8,, C,6.96,PE,"Naphtho[1,2,3,4-rst]pentaphene","Clar and Schmidt, 1979"
 192-59-6,, C,7.33,PE,"Dibenzo[fg,st]pentacene","Clar and Schmidt, 1979"
 190-05-6,, C,6.83,PE,"Benzo[a]naphtho[2,1,8-hij]naphthacene","Clar and Schmidt, 1979"
 190-36-3,Vertical value, C,6.51,PE,"Dibenzo[a,o]perylene","Clar and Schmidt, 1977"
 14147-38-7,Vertical value, C,6.82,PE,"Dibenzo[de,st]pentacene","Clar and Schmidt, 1977"
 197-69-3,Vertical value, C,6.85,PE,"Dibenzo[fg,ij]pentaphene","Clar and Schmidt, 1977"
 191-81-1,Vertical value, C,6.64,PE,"Dibenzo[a,n]perylene","Clar and Schmidt, 1977"
 28512-55-2,, C,6.84,CTS,"Anthra[1,2-e]acephenanthrylene","Briegleb, 1964"
 99685-96-8,LL, C,7.6,EI,Buckminsterfullerene,"Muigg, Scheier, et al., 1996"
 135113-15-4,LL, C,7.10 ¡À 0.10,PI,Fullerene-C76,"Steger, Holzapfel, et al., 1995"
 70346-75-7,Vertical value; , C,6.79 ¡À 0.02,PE,"Dibenzo[a,jk]phenanthro[8,9,10,12-cdefgh]pyranthrene","Clar and Schmidt, 1978"
 917-23-7,LLK, C,6.3 ¡À 0.2,LE,Tetraphenylporphyrin,"Nakato, Abe, et al., 1976"
 14640-21-2, , C,5.9 ¡À 0.2,LE,Magnesium meso-tetraphenylporphine,"Nakato, Abe, et al., 1976"
 14172-91-9, , C,6.2 ¡À 0.2,LE,"[5,10,15,20-tetraphenyl-21H,23H-porphinato(2-)-N21,N22,N23,N24]copper","Nakato, Abe, et al., 1976"
 31004-82-7,Vertical value, C,6.44,PE,"Manganese, [5,10,15,20-tetraphenyl-21H,23H-porphinato(2-)-N21,N22,N23,N24]-, (SP-4-1)-","Khandelwal and Roebber, 1975"
 16591-56-3,Vertical value; , C,6.5,PE,Iron tetraphenylporphyrin,"Khandelwal and Roebber, 1975"
 32195-55-4,, C,6.0 ¡À 0.2,LE,"5,10,15,20-Tetraphenyl-21H,23H-porphine manganese(iii) chloride","Nakato, Abe, et al., 1976"
 16456-81-8,LLK, C,6.1 ¡À 0.2,LE,"5,10,15,20-Tetraphenyl-21H,23H-porphine iron monochloride","Nakato, Abe, et al., 1976"
 14172-90-8,, C,6.1 ¡À 0.2,LE,"[5,10,15,20-tetraphenyl-21H,23H-porphinato(2-)-N21,N22,N23,N24]cobalt","Nakato, Abe, et al., 1976"
 14784-17-9,, C,6.0 ¡À 0.2,LE,"Lead, [5,10,15,20-tetraphenylporphinato(2-)]-","Nakato, Abe, et al., 1976"
 14074-80-7, , C,6.0 ¡À 0.2,LE,"Zinc, [5,10,15,20-tetraphenyl-21H,23H-porphinato(2-)-¦ÊN21,¦ÊN22,¦ÊN23,¦ÊN24]-, (SP-4-1)-","Nakato, Abe, et al., 1976"
 14172-92-0,LLK, C,6.3 ¡À 0.2,LE,Nickel tetraphenylporphyrin,"Nakato, Abe, et al., 1976"
 114025-12-6,, C,6.55,PE,"Phthalocyaninatogermanium, bis(tert-butyldimethylsiloxy)-","Doris, Ciliberto, et al., 1986"
 72382-91-3,LLK, C,6.8,PE,"Tetrabenzo[a,c,m,o]naphtho[1,2,3,4-rst]pentaphene","Clar and Schmidt, 1979"
 136846-57-6,LL, C,7.27 ¡À 0.14,IMB,c68-Fullerene,"Zimmerman and Eyler, 1991"
 141176-39-8,, C,7,DTI,Fullerene-C120,"Beck, Weis, et al., 1994"
 594-18-3,LLK, CBr,10.4,PE,"Methane, dibromodichloro-","Bunzli, Frost, et al., 1976"
 73411-13-9,Vertical value, CBr,10.02 ¡À 0.05,PE,"Methane, dibromochloronitroso-","Ernsting, Pfab, et al., 1980"
 41895-46-9,, CBr,12. ¡À 1.,DER,"Methyl, dibromofluoro-","Langford and Harris, 1990"
 75-61-6,LBLHLM, CBr,10.98 ¡À 0.02,PI,"Methane, dibromodifluoro-","Wang and Leroi, 1983"
 1065-05-0,, C,10.43 ¡À 0.05,EI,"Cyclo-tris(bis(2,2,2-trifluoroethoxy)phosphonitrile)","Branton, Brion, et al., 1970"
 12636-68-9,RDSH, C,7.2 ¡À 0.1,EI,"Vanadium, (¦Ç7-cycloheptatrienylium)(¦Ç5-2,4-cyclopentadien-1-yl)-","Muller and Goser, 1968"
 12129-72-5,, C,6.3 ¡À 0.1,EI,Bis(benzene)vanadium,"Muller and Goser, 1968"
 97683-81-3, , C,6.9,PE,"1,3,2,4-Diazasilastannetane, 1,3-di(tert-butyl)-2,2,4,4-tetramethyl-","Andreocci, Cauletti, et al., 1991"
 62948-83-8, , C,6.7,PE,"1,3,2,4-Diazadistannetane, 1,3-di(tert-butyl)-2,2,4,4-tetramethyl-","Andreocci, Cauletti, et al., 1991"
 2283-11-6,Vertical value; , C,7.19,PE,"Phosphorous triamide, hexaethyl-","Worley, Hargis, et al., 1982"
 14355-67-0,Vertical value, C,8.1,PE,"Stannane, triethyl(triethylsilyl)-","Mochida, Worley, et al., 1985"
 63262-93-1,Vertical value, C,8.52,PE,"Disilane, 1,2-bis(1,1-dimethylethyl)-1,1,2,2-tetramethyl-","Block, Biernbaum, et al., 1977"
 1633-09-6,Vertical value, C,8.39,PE,"Disilane, hexaethyl-","Mochida, Worley, et al., 1985"
 34902-22-2,, CBr,14. ¡À 1.,DER,"Methyl, dibromochloro-","Langford and Harris, 1990"
 373-91-1,LLK, CF,13,PE,trifluoromethyl hypofluorite,"Robin and Kuebler, 1973"
 51203-49-7,LBLHLM, C,6.4,PE,"Titanium,(¦Ç","Davies, Gardiner, et al., 1985"
 84814-09-5, , C,¡Ü6.0,PE,"1,3,2-Diazasilolidine, 1,3-di-tert-butyl-2,2-dimethyl-","tom Dieck, Bruder, et al., 1983"
 23978-55-4,LBLHLM, C,8,PE,"1,4,10,13-Tetraoxa-7,16-diazacyclooctadecane","Baker, Armen, et al., 1983"
 52462-43-8,Vertical value, C,5.5,PE,"Titanium,bis(¦Ç","Anthony, Green, et al., 1975"
 12089-15-5,Vertical value, C,7.37,PE,(¦Ç,"Worley and Webb, 1980"
 12301-35-8,Vertical value, C,5.87 ¡À 0.05,PE,"Molybdenum,(¦Ç","Groenenboom, de Liefde Meijer, et al., 1975"
 12129-68-9,Vertical value; , C,5.52 ¡À 0.05,PE,"Molybdenum,bis(¦Ç-benzene)-","Evans, Green, et al., 1974"
 10596-53-9,, C,5.60 ¡À 0.10,PI,"1,3-Butadiene, 1,1,4,4-tetrakis(N,N-dimethylamine)-","Nakato, Chiyoda, et al., 1974"
 12129-69-0,LBLHLM, C,7,PE,"Tungsten, tricarbonyl[(1,2,3,4,5,6-¦Ç)-1,3,5-trimethylbenzene]-","Byers and Hall, 1987"
 64776-55-2,Vertical value, C,8.44,PE,"4¦Á,8¦Á-(Methanothiomethano)naphthalene-10-oxide","Bohm and Gleiter, 1979"
 91632-94-9,Vertical value, C,8.95,PE,11-Methylene pentacyclo[5.4.0.0,"Marchand, Kaya, et al., 1984"
 21377-44-6,LLK, C,8.3,PE,"4a,8a-Ethanonaphthalene-9,10-dione,1,4,5,8-tetrahydro-","Dougherty, Bloomfield, et al., 1976"
 23695-63-8,Vertical value, C,8.7,PE,"4a,8a-(Methanothiomethano)naphthalene, 10,10-dioxide","Bohm and Gleiter, 1979"
 73650-68-7,LLK, C,7.6,PE,"13,14-Dioxatricyclo[8.2.1.1","Kovac, Allan, et al., 1980"
 18096-66-7,Vertical value, C,8.18,PE,"1H-Indene-2-methanol, acetate","Gross, Schulz, et al., 1981"
 54564-58-8,Vertical value, C,8.28,PE,"2-Cyclopropene-1-carboxylic acid, 2-methyl-3-phenyl-, methyl ester","Baidin, Domnin, et al., 1984"
 13935-44-9,, C,7.1,EI,2-(4-Azulyl)ethanol,"Cooks, Wolfe, et al., 1970"
 53308-23-9,Vertical value, C,8.1,PE,"1,4-Methanonaphthalene,1,4-dihydro-5-methoxy-","Ku, Paquette, et al., 1979"
 4897-71-6, , C,7.87 ¡À 0.05,PE,"1,4-Methanonaphthalene,1,4-dihydro-6-methoxy-","Santiago, McAlduff, et al., 1978"
 87119-36-6, , C,8.2,PE,"Bicyclo[2.2.2]octan-2-one, 5,6,7,8-tetramethylene-","Carrupt, Gabioud, et al., 1987"
 58853-55-7,LBLHLM, C,7,PE,"Bicyclo[4.4.1]undeca-1,3,5,7,9-pentaene, 2-methoxy-","Andrea, Cerfontain, et al., 1984"
 54360-38-2,Vertical value, C,5.98 ¡À 0.05,PE,"Niobium,(¦Ç","Groenenboom, de Liefde Meijer, et al., 1975"
 52445-55-3, , C,6.4,PE,Bis-¦Ç,"Casarin, Ajo, et al., 1983"
 775-12-2,LLK, C,8.8,PE,"Silane, diphenyl-","Distefano, Pignataro, et al., 1976"
 939-27-5,LBLHLM, C,7.95,PE,"Naphthalene, 2-ethyl-","Klasinc, Kovac, et al., 1983"
 61278-86-2, , C,8.17,PE,"9,10-Dimethylenetricyclo[5.3.0.0","Gleiter, Toyota, et al., 1988"
 581-40-8,RDSH, C,8.11,CTS,"Naphthalene, 2,3-dimethyl-","Slifkin and Allison, 1967"
 575-41-7,Vertical value; , C,7.86 ¡À 0.03,PE,"Naphthalene, 1,3-dimethyl-","Heilbronner, Hoshi, et al., 1976"
 571-58-4,RDSH, C,7.78 ¡À 0.03,EI,"Naphthalene, 1,4-dimethyl-","Nounou, 1966"
 54006-95-0,Vertical value, C,6.94 ¡À 0.05,PE,"Zirconium,(¦Ç","Groenenboom, de Liefde Meijer, et al., 1975"
 12093-81-1,LBLHLM, C,5.4,PE,"Chromium,(¦Ç","Davies, Gardiner, et al., 1985"
 1271-54-1,RDSH, C,4.9,EI,"Chromium, bis(¦Ç6-benzene)-","Devyatykh, Larin, et al., 1969"
 12129-67-8,LLK, C,7.29,CTS,"Chromium, tricarbonyl[¦Ç","Kobayashi, Kobayashi, et al., 1973"
 1134-35-6,LBLHLM, C,8.2,PE,"2,2'-Bipyridine, 4,4'-dimethyl-","Dobson, Hillier, et al., 1983"
 1271-51-8,, C,6.75 ¡À 0.05,PI,Vinylferrocene,"Adamchuk, Dmitriev, et al., 1972"
 92-87-5,, C,6.88,PI,Benzidine,"Pykhtina, Cherednichenko, et al., 1974"
 101-80-4,, C,6.55,PI,"Benzenamine, 4,4'-oxybis-","Pykhtina, Cherednichenko, et al., 1974"
 139-65-1,, C,6.75,PI,"Benzenamine, 4,4'-thiobis-","Pykhtina, Cherednichenko, et al., 1974"
 80-08-0,, C,7.25 ¡À 0.05,PI,Dapsone,"Evlasheva, Puchkova, et al., 1975"
 122-66-7, , C,7.78 ¡À 0.05,PE,"Hydrazine, 1,2-diphenyl-","Rademacher, Bass, et al., 1977"
 84756-01-4, , C,6.5,PE,"Ferrocene, 1,1'-[1,2-ethanediylbis(thio)]-","Vondrak and Sato, 1989"
 95642-50-5,Vertical value, C,7.7,PE,"1,3-Thiazine-6-one-4-ol, 2-(4-dimethylaminophenyl)-","Yakovlev, Mironova, et al., 1987"
 109364-69-4, , C,8.7,PE,"Bicyclo[2.2.2]octa-2,5-diene-2,3-dicarbonitrile, 5,6-dimethyl-","Kobayashi, Yoshida, et al., 1987"
 10075-73-7,Vertical value; , C,7.58,PE,"Naphthalene, 1,4-bis(methylthio)-","Bock and Brahler, 1979"
 73650-69-8,LLK, C,7.95,PE,"13,14-Dithiatricyclo[8.2.1.1","Kovac, Allan, et al., 1980"
 10075-77-1,Vertical value; , C,7.59,PE,"Naphthalene, 2,6-bis(methylthio)-","Bock and Brahler, 1979"
 688-73-3,Vertical value, C,8.8,PE,tri-n-Butyltin hydride,"Beltram, Fehlner, et al., 1980"
 2176-98-9,Vertical value; , C,8.82,PE,"Stannane, tetrapropyl-","Kochi, 1980"
 2949-42-0,Vertical value; , C,8.46,PE,"Stannane, tetrakis(1-methylethyl)-","Kochi, 1980"
 7343-31-9,LLK, C,7.2,PE,"Naphthalene, 1,8-bis(methylthio)-","Bock and Brahler, 1979"
 10075-74-8,LLK, C,7.3,PE,"Naphthalene, 1,5-bis(methylthio)-","Bock and Brahler, 1979"
 60948-99-4,LLK, C,7.7,PE,"Naphthalene,1,8-mercaptomethyl","Guttenberger, Bestmann, et al., 1981"
 582-16-1,Vertical value; , C,7.89 ¡À 0.03,PE,"Naphthalene, 2,7-dimethyl-","Heilbronner, Hoshi, et al., 1976"
 571-61-9,LLK, C,8.30 ¡À 0.05,EI,"Naphthalene, 1,5-dimethyl-","Loudon and Mazengo, 1974"
 569-41-5,LLK, C,7.5,PE,"Naphthalene, 1,8-dimethyl-","Guttenberger, Bestmann, et al., 1981"
 60323-50-4,LLK, C,9,PE,"1,5,9-Cyclododecatriyne","Houk, Strozier, et al., 1979"
 56594-77-5,Vertical value; , C,7.18 ¡À 0.03,PE,"Azulene, 4,5-dimethyl-","Heilbronner, Hoshi, et al., 1976"
 7322-46-5,LBLHLM, C,8.2,PE,"1,4-Ethanonaphthalene, 1,4-dihydro-","Haselbach, Neuhaus, et al., 1982"
 68109-02-4,Vertical value, C,8.3,PE,"1,2,5-Metheno-1H-cyclobuta[de]naphthalene,1a,2,4a,5,7a,7b-hexahydro-","Martin and Pfohler, 1978"
 61278-83-9, , C,7.4,PE,Tricyclo[5.5.0.0,"Gleiter, Toyota, et al., 1988"
 56594-78-6,Vertical value; , C,7.29 ¡À 0.03,PE,"Azulene, 4,6-dimethyl-","Heilbronner, Hoshi, et al., 1976"
 4897-73-8,Vertical value; , C,8.12 ¡À 0.05,PE,"1,4-Methanonaphthalene, 1,4-dihydro-6-methyl-","Santiago, McAlduff, et al., 1978"
 56594-76-4,Vertical value; , C,7.08 ¡À 0.03,PE,"Azulene, 5,7-dimethyl-","Heilbronner, Hoshi, et al., 1976"
 38310-32-6,Vertical value; , C,8,PE,"4a,8a-Ethenonaphthalene, 1,4-dihydro-","Gleiter, Heilbronner, et al., 1973"
 7206-52-2,Vertical value; , C,7.27 ¡À 0.03,PE,"Azulene, 4,8-dimethyl-","Heilbronner, Hoshi, et al., 1976"
 46030-99-3,Vertical value; , C,7.20 ¡À 0.03,PE,"Azulene, 4,7-dimethyl-","Heilbronner, Hoshi, et al., 1976"
 97253-51-5, , C,7.4,PE,"1,4:5,8-Dimethanonaphthalene, 1,4,5,8-tetrahydro-, (1¦Á,4¦Á,5¦Á,8¦Á)-","Kunzer, Litterst, et al., 1987"
 10556-12-4,Vertical value; , C,7.17 ¡À 0.03,PE,"Azulene, 5,6-dimethyl-","Heilbronner, Hoshi, et al., 1976"
 21657-71-6,LLK, C,7.7,PE,Anti-tricyclo[6.4.0.0,"Gleiter, Gubernator, et al., 1981"
 97806-44-5, , C,7.3,PE,"1,4:5,8-Dimethanonaphthalene, 1,4,5,8-tetrahydro-, (1¦Á,4¦Á,5¦Â,8¦Â)-","Kunzer, Litterst, et al., 1987"
 60323-52-6,LLK, C,8.15 ¡À 0.05,PE,Tricyclobutenobenzene,"Heilbronner, Kovac, et al., 1981"
 56004-38-7,Vertical value, C,8.5,PE,"Cyclopent[cd]azulene,2a,4a,8a,8b-tetrahydro-","Bischof, Bosse, et al., 1975"
 24309-43-1,, C,8.42 ¡À 0.05,PE,"5,9-Methano-5H-benzocycloheptene,6,9-dihydro-","Domelsmith, Mollere, et al., 1978"
 15577-76-1,Vertical value, C,8.40 ¡À 0.05,PE,"2,7-Methano-1H-cyclopropa[b]naphthalene,1a,2,7,7a-tetrahydro-(1a&#945;,2&#946;,7&#946;,7a&#945;)-","Domelsmith, Mollere, et al., 1978"
 58790-01-5,LBLHLM, C,7.5,PE,"2-Methylbicyclo[4.4.1]undeca-1,3,5,7,9-pentaene","Andrea, Cerfontain, et al., 1984"
 6288-38-6,Vertical value, C,8.24,PE,"Germane, triethyl(triethylsilyl)-","Mochida, Worley, et al., 1985"
 7067-54-1,Vertical value, C,8.05,PE,"Stannane, triethyl(triethylgermyl)-","Mochida, Worley, et al., 1985"
 13304-31-9,Vertical value, C,6.9,PE,"2-Tetrazene, 1,1,4,4-tetrakis(1-methylethyl)-","Bischof, Gleiter, et al., 1975"
 68970-09-2,LBLHLM, C,6.58 ¡À 0.05,EQ,"Hydrazine, 1,2-dimethyl 1,2-dineopentyl-","Rumack, 1986"
 60678-69-5,Vertical value; , C,8.07,PE,Tetrapropylhydrazine,"Nelsen, 1984"
 993-62-4,LBLHLM, C,7.48 ¡À 0.01,EI,"Digermane, hexaethyl-","Mochida, Worley, et al., 1985"
 16109-37-8,Vertical value, C,7.7,PE,"Silane,2,3-dimethyl-2-butene-1,4-diyl)bis[trimethyl-e-","Bock and Kaim, 1980"
 55531-95-8,Vertical value, C,7.7,PE,"Silane,2,3-dimethyl-2-butene-1,4-diyl)bis[trimethyl-z-","Bock and Kaim, 1980"
 106376-59-4,LBLHLM, C,6.61 ¡À 0.05,EQ,"Hydrazine, N,N'-dimethyl-N,N'-dipentyl-","Rumack, 1986"
 26608-69-5,, C,8.72 ¡À 0.04,EI,"3,3-Dimethyl-1,1-bis(trimethylsilyl)-1-butene","Bock and Seidl, 1968"
 60678-68-4,Vertical value; , C,8.03,PE,"1,1-Dibutyl-2,2-diethylhydrazine","Nelsen, 1984"
 33991-54-7,Vertical value, C,7.7,PE,"Rhodium, tris(o,o-diethylphosphorodithioato-s,s')-","Ciliberto, Costanzo, et al., 1980"
 993-63-5,RDSH, C,6.60 ¡À 0.02,EI,"Distannane, hexaethyl-","Pitt, Bursey, et al., 1970"
 21602-84-6,Vertical value, C,8.3,PE,"Indium, tris(o,o-diethylphosphorodithioato-s,s')-","Ciliberto, Costanzo, et al., 1980"
 22614-60-4,, C,7.02,EI,Bis(triethylphosphite-p-)iron dinitrosyl,"Distefano and Innorta, 1968"
 14177-95-8,Vertical value, C,7.71,PE,"Chromium(III) trisO,O'-(diethyldithiophosphate)","Ciliberto, Costanzo, et al., 1980"
 14177-94-7,Vertical value, C,7.95,PE,"Cobalt, tris(o,o-diethyl phosphorodithioato-s,s')-","Ciliberto, Costanzo, et al., 1980"
 593-95-3,LLK, CBr,10.8,PE,Carbonic dibromide,"Thomas and Thompson, 1972"
 4371-77-1,RDSH, CBr,10.11 ¡À 0.09,EI,Dibromomethylene,"Reed and Snedden, 1958"
 558-13-4,LBLHLM, CBr,10.3 ¡À 0.2,EI,Carbon tetrabromide,"Kime, Driscoll, et al., 1987"
 75-73-0,LBLHLM, CF,16.2 ¡À 0.1,EI,Tetrafluoromethane,"Kime, Driscoll, et al., 1987"
 12547-96-5,LLK, C,9.0 ¡À 1.0,EI,Titanium tetracarbide,"Kohl and Stearns, 1974"
 335-01-3,LBLHLM, CF,11.9,PE,Pentafluoromethylamine,"Burger, Pawelke, et al., 1982"
 35505-46-5,Vertical value, C,7.33,PE,"3H-[1,2]Dithiolo[4,5,1-hi][1,2]benzodithiole-8-s(iv),2,6-diethyl-4,5-dihydro-","Gleiter, Hornung, et al., 1971"
 88814-72-6,Vertical value, C,8.10 ¡À 0.05,PE,Dichromium tetrapropionate,"Coleman, Green, et al., 1979"
 12295-17-9, , C,6.9,PE,"Chromium, bis[¦Ì-[(1-¦Ç:2,3-¦Ç)-2-propenyl]]bis(¦Ç3-2-propenyl)di-, (Cr-Cr)","Green and Seddon, 1980"
 89771-80-2, , C,8,PE,"1,4:5,8-Dimethanophthalazine, 1,4,4a,5,8,8a-hexahydro-10,10-dimethyl- (1¦Á,4¦Á,4a¦Á,5¦Á,8¦Á,8a¦Á)-","Beck, Hunig, et al., 1986"
 143268-49-9,Vertical value, C,6.33,PE,"Benzimidazoline,2-isopropylidene-1,3-dimethyl-","Quast, Ach, et al., 1993"
 14749-76-9, , C,6,PE,"Pentalene, 1,3-bis(dimethylamino)-","Eckert-Maksic, Gleiter, et al., 1988"
 10507-71-8,Vertical value, C,7.73,PE,"2,2',5,5'-Tetramethyl-1,1'-bipyrrole","Flitsch, Peeters, et al., 1978"
 61-50-7, , C,7.3,PE,"N,N-Dimethyltryptamine","Domelsmith, Munchausen, et al., 1977"
 66102-38-3,Vertical value, C,7.76,PE,"1,4-Ethanoquinoxaline, 2,3-dihydro-6,7-dimethyl-","Nelsen, Grezzo, et al., 1981"
 66102-37-2,Vertical value, C,7.78,PE,"1,4-Ethanoquinoxaline, 2,3-dihydro-5,8-dimethyl-","Nelsen, Grezzo, et al., 1981"
 73023-02-6,Vertical value, C,7.91,PE,"1,5-Propano-2H-1,5-benzodiazepine, 3,4-dihydro-","Nelsen, Grezzo, et al., 1981"
 58863-42-6,, C,8.03,PI,Methyl 4-tert-butyl-dithiabenzoate,"Takhistov, Misharev, et al., 1995"
 68003-59-8,Vertical value, C,7.2,PE,"Benzenecarboximidamide,N,N-dimethyl-N'-1-propenyl","Worley, Taylor, et al., 1978"
 183-85-7,Vertical value, C,7.98 ¡À 0.02,PE,"7,8,15,16-Tetrathiadispiro[5.2.5.2]hexadecane","Guimon, Guimon, et al., 1976"
 1689-77-6,Vertical value, C,7.85,PE,"Thiophene, 2,5-bis(1,1-dimethylethyl)-","Muller, Schweig, et al., 1974"
 81064-40-6, , C,7.2,PE,"Iron, ¦Ç","Paquette, Daniels, et al., 1984"
 17853-54-2,Vertical value, C,9.2,PE,"4¦Á,8¦Á-(Methanothiomethano)naphthalene,1,4,5,8-tetrahydro-10,10-dioxide","Bohm and Gleiter, 1979"
 24306-23-8,, C,8.5 ¡À 0.2,EI,4-(4-Tolyl)butanoic acid methyl ester,"Howe, Williams, et al., 1969"
 26537-19-9,RDSH, C,9.38,EI,Methyl 4-tert-butylbenzoate,"Howe and Williams, 1969"
 24254-66-8,, C,8.2 ¡À 0.2,EI,3-(4-Tolyl)butanoic acid methyl ester,"Howe, Williams, et al., 1969"
 5011-61-0,LBLHLM, C,8.9 ¡À 0.01,EI,"Dispiro[4.1.4.1]dodecane-6,12-dione","Olivares, Flesch, et al., 1984"
 21377-46-8,LLK, C,8.5,PE,"4a,8a-Ethanonapthalene-9,10-dione,octahydro-","Dougherty, Bloomfield, et al., 1976"
 71656-72-9,Vertical value, C,8.71,PE,"4¦Á,8¦Á-(Methanothiomethano)naphthalene,1,2,3,4-tetrahydro-10-oxide","Bohm and Gleiter, 1979"
 17853-53-1,Vertical value, C,8.52,PE,"4¦Á,8¦Á-(Methanothiomethano)naphthalene,1,4,5,8-tetrahydro-10-oxide","Bohm and Gleiter, 1979"
 20637-08-5,, C,7.8 ¡À 0.5,EI,"Benzenebutanoic acid, 4-methoxy-, methyl ester","Howe and Williams, 1968"
 6555-29-9,, C,7.7 ¡À 0.2,EI,"Hydrocinnamic acid, p-methoxy-¦Â-methyl-, methyl ester","Howe, Williams, et al., 1969"
 63340-02-3,Vertical value, C,8.11,PE,"Benzene,1-(1-ethylcyclopropyl)-4-methoxy-","Prins, Verhoeven, et al., 1977"
 1589-60-2,, C,8,EI,1-Phenylcyclohexanol,"Mikaya, Zaikin, et al., 1979"
 943-27-1,Vertical value; , C,9.01 ¡À 0.05,PE,"Ethanone, 1-[4-(1,1-dimethylethyl)phenyl]-","McAlduff, 1980"
 40488-88-8, , C,8.6,PE,"1,4:5,8-Dimethanonaphthalen-2(1H)-one, octahydro-, (1¦Á,4¦Á,4a¦Â,5¦Â,8¦Â,8a.beta)-","Paddon-Row, Patney, et al., 1982"
 36197-31-6, , C,8.5,PE,"1,4:5,8-Dimethanonaphthalen-9-one, (1&#945;,4&#945;,4a&#945;,5&#946;,8&#946;,8a&#945;)-","Paddon-Row, Patney, et al., 1982"
 36197-32-7,Vertical value, C,8.62,PE,3-Oxapentacyclo[7.3.1,"Paddon-Row, Patney, et al., 1982"
 112138-33-7,Vertical value, C,8.9,PE,"[3.3.3]Propellane-2-one, 8-methylene","Gleiter, Litterst, et al., 1988"
 28068-45-3, , C,8.3,PE,"1,4:5,8-Dimethanonaphthalen-9-ol, 1,4,4a,5,6,7,8,8a-octahydro-, stereoisomer","Paddon-Row, Patney, et al., 1982"
 36197-15-6, , C,8.3,PE,"Tetracyclo[6.2.1.1(3,6).0(2,7)]dodec-4-ene-11-ol, stereoisomer","Paddon-Row, Patney, et al., 1982"
 1671-77-8,Vertical value, C,9.02,PE,"1-Pentanone, 1-(4-methylphenyl)-","Koenig, Wielesek, et al., 1977"
 63796-66-7,Vertical value, C,8.64,PE,"Iron,dicarbonylbis(4-morpholinecarbodithioato-s,s')-(oc-6-21)-","Cauletti, Duffy, et al., 1977"
 39333-52-3,Vertical value; , C,6.1 ¡À 0.1,PE,"Molybdenum,bis(¦Ç","Green, Jackson, et al., 1975"
 62635-54-5,, C,8.00 ¡À 0.05,EI,"Butanethioamide,N-(2-chlorophenyl)-3,3-dimethyl-","Baldwin, Loudon, et al., 1976"
 23022-40-4,, C,7.29 ¡À 0.01,EI,"Stannane,1H-inden-1-yltrimethyl-","Rakita, Hoffman, et al., 1973"
 39333-53-4,LLK, C,5.8,PE,Bis(¦Ç,"Green, Jackson, et al., 1975"
 18053-75-3,, C,7.65 ¡À 0.01,EI,"Silane,1H-inden-1-yltrimethyl-)","Rakita, Hoffman, et al., 1973"
 827-52-1,, C,8.1,EI,"Benzene, cyclohexyl-","Mikaya, Zaikin, et al., 1979"
 6407-02-9,Vertical value, C,8.64,PE,"Thiophene,2,5-bis(1,1-dimethylethyl)-1,1-dioxide","Muller, Schweig, et al., 1974"