CAS,Comment,Formula,IE,Method,Name,Refer
 72443-10-8,Vertical value, C,8.34,PE,"Methaneselone,2,4-cyclopentadien-1-ylidine-","Schulz and Schweig, 1980"
 589-87-7,LLK, C,8.52,PE,"Benzene, 1-bromo-4-iodo-","Behan, Johnstone, et al., 1976"
 250-71-5, , C,7.69,PE,"Selenolo[3,4-b]selenophene","Gleiter, Eckert-Maksie, et al., 1987"
 106-39-8,Vertical value, C,9.04,PE,"Benzene, 1-bromo-4-chloro-","Baker, May, et al., 1968"
 108-36-1,LBLHLM, C,9.01 ¡À 0.02,PIPECO,"Benzene, 1,3-dibromo-","Olesik, Baer, et al., 1986"
 583-53-9,LBLHLM, C,8.98 ¡À 0.02,PIPECO,"Benzene, 1,2-dibromo-","Olesik, Baer, et al., 1986"
 1072-85-1, , C,9.11 ¡À 0.02,PE,"Benzene, 1-bromo-2-fluoro-","Mohraz, Maier, et al., 1980"
 1073-06-9, , C,9.11 ¡À 0.02,PE,"Benzene, 1-bromo-3-fluoro-","Mohraz, Maier, et al., 1980"
 460-00-4,LLK, C,9.02 ¡À 0.02,PE,p-Bromofluorobenzene,"Mohraz, Maier, et al., 1980"
 106-37-6,LBLHLM, C,8.82 ¡À 0.02,PIPECO,"Benzene, 1,4-dibromo-","Olesik, Baer, et al., 1986"
 114606-24-5,, C,8.18,DER,"Diazenyl, (4-bromophenyl)-","Nuyken and Messmer, 1977"
 255-53-8, , C,8.9,PE,"Pyrazino[2,3-b]pyrazine","Gleiter, Spanget-Larsen, et al., 1984"
 250-84-0,LLK, C,8.32,PE,"Thieno[2,3-b]thiophene","Clark, Gleiter, et al., 1973"
 251-41-2, , C,8.1,PE,"Thieno[3,2-b]thiophene","Clark, Gleiter, et al., 1973"
 81044-78-2, , C,8.15,PE,Benzodithiete,"Breitenstein, Schulz, et al., 1982"
 56742-37-1,, C,7.06,CTS,"1,3-Thiaselenole, 2-(1,3-thiaselenol-2-ylidene)-","Engler, Kaufman, et al., 1975"
 2395-99-5,LLK, C,9.06,DER,p-Nitrophenyl radical,"Nuyken and Messmer, 1977"
 120651-12-9,, C,7.89,DER,"Diazenyl, (4-nietrophenyl)-","Nuyken and Messmer, 1977"
 487-21-8,Vertical value, C,9.2,PE,Lumazine,"Palmer, Simpson, et al., 1980"
 129836-93-7,LL, C,9.05 ¡À 0.02,LS,Cyanocyclopentadienyl radical,"Im and Bernstein, 1991"
 74070-00-1, , C,7.91,PE,"Selenolo[3,4-b]thiophene","Gleiter, Eckert-Maksie, et al., 1987"
 33880-20-5, , C,7.76,PE,"Selenolo[2,3-c]thiophene","Gleiter, Eckert-Maksie, et al., 1987"
 84615-33-8,Vertical value, C,8.5,PE,Dithio-p-benzoquinone,"Bock, Mohmand, et al., 1983"
 624-38-4,LLK, C,8.45,PE,"Benzene, 1,4-diiodo-","Potts, Lyus, et al., 1980"
 15703-03-4,Vertical value, C,7.49,PE,"Platinum, diiodobis(trimethylphosphine)-","Behan, Johnstone, et al., 1978"
 100-54-9,LLK, C,10.4 ¡À 0.1,EI,3-Pyridinecarbonitrile,"Stefanovic and Grutzmacher, 1974"
 100-70-9,LLK, C,10.5 ¡À 0.1,EI,2-Pyridinecarbonitrile,"Stefanovic and Grutzmacher, 1974"
 54191-78-5, , C,8,PE,"Methanethione, 2,4-cyclopentadien-1-ylidene-","Schulz and Schweig, 1979"
 100-48-1,LLK, C,10.4 ¡À 0.1,EI,4-Pyridinecarbonitrile,"Stefanovic and Grutzmacher, 1974"
 50555-55-0,, C,8.85,PE,"Thiirane,trans-2,3-diethynyl-","Brogli, Heilbronner, et al., 1975"
 273-77-8, , C,9.50 ¡À 0.05,EI,"1,2,3-Benzothiadiazole","Thorstad and Undheim, 1974"
 273-13-2,LL, C,9,PE,"2,1,3-Benzothiadiazole","Petrachenko, Vovna, et al., 1991"
 14906-64-0,Vertical value; , C,8.93 ¡À 0.02,PE,nicotinonitrile 1-oxide,"Maier and Muller, 1974"
 50555-56-1,, C,8.8,PE,"Thiirane,cis-2,3-diethynyl-","Brogli, Heilbronner, et al., 1975"
 273-09-6,, C,9.37,PE,Benzofurazan,"Clark, Gleiter, et al., 1973"
 31366-25-3,LBLHLM, C,6.3,PE,Tetrathiafulvalene,"Kobayashi, Yoshida, et al., 1984"
 18222-89-4,, C,9.4 ¡À 0.05,PE,"1,3,5,7-Tetrasilatricyclo[3.3.1.1","Schmidt, Wilkins, et al., 1973"
 273-92-7, , C,8.5,PE,"1,2,3-Benzoselenadiazole","Schulz and Schweig, 1980"
 273-15-4,, C,8.76,PE,"2,1,3-Benzoselenadiazole","Petrachenko, Vovna, et al., 1991"
 51-28-5,LLK, C,9.57,PE,"Phenol, 2,4-dinitro-","Dougherty, Younathan, et al., 1978"
 932-97-8,, C,8.28 ¡À 0.05,EI,"2,5-Cyclohexadien-1-one, 4-diazo-","Thorstad, Undheim, et al., 1974"
 2402-98-4,Vertical value, C,8.96 ¡À 0.02,PE,"Picolinonitrile, 1-oxide","Maier and Muller, 1974"
 14906-59-3,Vertical value; , C,8.95 ¡À 0.02,PE,"4-Pyridinecarbonitrile, 1-oxide","Maier and Muller, 1974"
 273-59-6,Vertical value, C,9.45,PE,"1,2,3-Benzoxadiazole","Schulz and Schweig, 1979"
 636-98-6,, C,9.24,PE,"Benzene, 1-iodo-4-nitro-","Behan, Johnstone, et al., 1976"
 528-29-0,Vertical value; , C,10.71,PE,"Benzene, 1,2-dinitro-","Palmer, Moyes, et al., 1979"
 99-65-0,LLK, C,10.43 ¡À 0.02,PI,"Benzene, 1,3-dinitro-","Kotov and Potapov, 1972"
 100-25-4,LLK, C,10.3 ¡À 0.1,PE,"Benzene, 1,4-dinitro-","Egdell, Green, et al., 1975"
 33446-81-0,Vertical value, C,9.6 ¡À 0.1,PE,"2,8,9-Trioxa-5-aza-1-silabicyclo[3.3.3]undecane, 1-chloro-","Peel and Dianxum, 1988"
 462-80-6,LL, C,9.03 ¡À 0.05,PE,Benzyne,"Zhang and Chen, 1992"
 6929-94-8,, C,9.6 ¡À 0.2,EI,"Hex-3-en-1,5-diyne","Grutzmacher and Lohmann, 1967"
 16668-67-0,LLK, C,9.10 ¡À 0.02,PE,"(Z)-Hexa-1,5-diyne-3-ene","Bieri, Burger, et al., 1977"
 73385-31-6,, C,9.97 ¡À 0.06,EI,"1,5-Hexadiyne-1,6-d2","Gross and Aerni, 1973"
 1731-10-8,Vertical value, C,9,PE,"Germacyclopent-3-ene,1,1-dimethyl-","Schweig, Weidner, et al., 1972"
 6775-78-6,Vertical value, C,8.55,PE,"Imidazo[1,2-b]pyridazine,6-chloro-","Kovac, Klasinc, et al., 1980"
 15277-97-1, , C,9,PE,"Tricyclo[3.3.3.0(1,5)]undecane, 2,8,9-trioxa-5-aza-1-bora-","Peel, Rothwell, et al., 1987"
 283-56-7,Vertical value, C,9.8,PE,"2,8,9-Trioxa-5-aza-1-borabicyclo[3.3.3]undecane","Cradock, Ebsworth, et al., 1975"
 100-00-5,RDSH, C,10. ¡À 0.1,EI,"Benzene, 1-chloro-4-nitro-","Brown, 1970"
 121-73-3,RDSH, C,9.9 ¡À 0.1,EI,"Benzene, 1-chloro-3-nitro-","Brown, 1970"
 13165-68-9,LBLHLM, C,8.8,PE,"Benzenamine, 4-chloro-N-sulfinyl-","Louwen, Van Dam, et al., 1982"
 367-27-1,Vertical value, C,8.98 ¡À 0.02,PE,"2,4-Difluorophenol","Maier, Marthaler, et al., 1980"
 932-98-9,Vertical value; , C,9.0 ¡À 0.1,PE,"Benzene, 1-chloro-4-nitroso-","Egdell, Green, et al., 1975"
 2713-31-7,Vertical value, C,9.10 ¡À 0.02,PE,"2,5-Difluorophenol","Maier, Marthaler, et al., 1980"
 2713-34-0,Vertical value, C,9.04 ¡À 0.02,PE,"3,5-Difluorophenol","Maier, Marthaler, et al., 1980"
 16153-13-2, , C,8.06,PE,"1H,5H-[1,2]Azaborolo[1,2-a][1,2]azaborole,tetrahydro-","Bock and Fuss, 1971"
 38348-31-1,Vertical value; , C,8.1 ¡À 0.2,PE,"1,2,4-Trithiolane, 3,3,5,5-tetramethyl-","Guimon, Guimon, et al., 1976"
 350-46-9,LLK, C,9.9,PE,"Benzene, 1-fluoro-4-nitro-","Palmer, Moyes, et al., 1979"
 2765-04-0,LLK, C,8,PE,"1,3,5-Trithiane, 2,4,6-trimethyl-","Kroto, Landsberg, et al., 1974"
 1493-27-2,Vertical value; , C,9.86,PE,"Benzene, 1-fluoro-2-nitro-","Palmer, Moyes, et al., 1979"
 402-67-5,LLK, C,9.88,PE,"Benzene, 1-fluoro-3-nitro-","Palmer, Moyes, et al., 1979"
 372-18-9,LLK, C,9.2,PE,"Benzene, 1,3-difluoro-","Maier and Thommen, 1981"
 367-11-3,LLK, C,9.284 ¡À 0.008,EQ,"Benzene, 1,2-difluoro-","Lias and Ausloos, 1978"
 540-36-3,LL, C,9.1590 ¡À 0.0004,TE,"Benzene, 1,4-difluoro-","Rieger, Reiser, et al., 1992"
 7191-35-7,Vertical value, C,8.7,PE,"1,4,6,9-Tetrathia-5-stannaspiro[4.4]nonane,2,7-dimethyl-","Delmas and Maire, 1978"
 348-51-6,LLK, C,9.18 ¡À 0.02,PE,"Benzene, 1-chloro-2-fluoro-","Mohraz, Maier, et al., 1980"
 352-33-0,LLK, C,9.08 ¡À 0.02,PE,"Benzene, 1-chloro-4-fluoro-","Mohraz, Maier, et al., 1980"
 625-98-9,LLK, C,9.22 ¡À 0.02,PE,"Benzene, 1-chloro-3-fluoro-","Mohraz, Maier, et al., 1980"
 4475-72-3,Vertical value, C,8.23 ¡À 0.02,PE,"3,3,6,6-tetramethyl-1,2,4,5-tetrathiane","Guimon, Guimon, et al., 1976"
 13046-50-9,Vertical value, C,7.75,PE,Tetrakis(methylthio)ethylene,"Bock, Wagner, et al., 1974"
 3796-24-5,Vertical value; , C,10.1,PE,"Pyridine, 4-trifluoromethyl-","Weiner and Lattman, 1975"
 2557-70-2,, C,9.18 ¡À 0.05,EI,"Ethanone,2,2,2-trifluoro-1-(1H-pyrrol-2-yl)-","Linda, Marino, et al., 1971"
 63920-62-7,Vertical value; , C,8.9,PE,"Pyridine, 4-(trifluoromethyl)-1-oxide","Weiner and Lattman, 1975"
 4789-70-2,, C,8.15 ¡À 0.01,PI,"Butane, 1-(ethenylthio)-","Trofimov, Mel'der, et al., 1975"
 37523-44-7,Vertical value, C,8.58 ¡À 0.05,PE,"Thiirane, 2-(1,1-dimethylethyl)-","Block, Yencha, et al., 1988"
 14094-13-4,, C,8.07 ¡À 0.01,PI,"Propane, 2-(ethenylthio)-2-methyl-","Trofimov, Mel'der, et al., 1975"
 615-41-8,, C,8.4 ¡À 0.1,PI,"Benzene, 1-chloro-2-iodo-","Watanabe, 1957"
 541-73-1,LBLHLM, C,9.10 ¡À 0.02,PIPECO,"Benzene, 1,3-dichloro-","Olesik, Baer, et al., 1986"
 87-65-0,, C,8.65 ¡À 0.02,PE,"Phenol, 2,6-dichloro-","Maier and Turner, 1973"
 95-50-1,LBLHLM, C,9.06 ¡À 0.02,PIPECO,"Benzene, 1,2-dichloro-","Olesik, Baer, et al., 1986"
 106-46-7,LL, C,8.95,PE,"Benzene, 1,4-dichloro-","Fujisawa, Oonishi, et al., 1991"
 16668-68-1,LLK, C,9.07 ¡À 0.02,PE,"(E)-Hexa-1,5-diyne-3-ene","Bieri, Burger, et al., 1977"
 15732-69-1,LBLHLM, C,7.7,PE,"2,4,6-Trimethyl-1,3,5-triselenacyclohexane","Bock, Aygen, et al., 1984"
 105442-63-5,Vertical value, C,7.7,PE,"Tellurium, butyl-ethenyl-","Sinegovskaya, Tatarinova, et al., 1991"
 110-82-7,LL, C,9.80 ¡À 0.05,EI,Cyclohexane,"Holmes and Lossing, 1991"
 13269-52-8,LLK, C,8.83 ¡À 0.02,PE,"3-Hexene, (E)-","Ashmore and Burgess, 1978"
 96-37-7,LL, C,9.62 ¡À 0.05,EI,"Cyclopentane, methyl-","Holmes and Lossing, 1991"
 625-27-4,LLK, C,8.58,EI,"2-Pentene, 2-methyl-","Lossing and Traeger, 1975"
 563-79-1,LLK, C,8.27 ¡À 0.02,PE,"2-Butene, 2,3-dimethyl-","Bieri, Burger, et al., 1977"
 7642-09-3,LLK, C,8.954 ¡À 0.005,PE,"3-Hexene, (Z)-","Masclet, Grosjean, et al., 1973"
 691-37-2,LLK, C,9.45 ¡À 0.02,PE,"1-Pentene, 4-methyl-","Bieri, Burger, et al., 1977"
 592-41-6,LL, C,9.46 ¡À 0.05,EI,1-Hexene,"Holmes and Lossing, 1991"
 763-29-1,LLK, C,9.04,EI,"1-Pentene, 2-methyl-","Lossing and Traeger, 1975"
 52761-86-1,Vertical value, C,9.1 ¡À 0.1,PE,"Butane, 2-bromo-3,3-dimethyl-2-nitroso-","Egdell, Green, et al., 1975"
 922-62-3,LLK, C,8.58,EI,"2-Pentene, 3-methyl-, (Z)-","Lossing and Traeger, 1975"
 563-78-0,LLK, C,9.07 ¡À 0.02,PE,"1-Butene, 2,3-dimethyl-","Bieri, Burger, et al., 1977"
 4050-45-7,LLK, C,8.93,EI,"2-Hexene, (E)-","Lossing and Traeger, 1975"
 760-20-3,LLK, C,9.44,EI,"1-Pentene, 3-methyl-","Holmes, Fingas, et al., 1981"
 760-21-4,LLK, C,9.01,EI,"Pentane, 3-methylene-","Lossing and Traeger, 1975"
 674-76-0,LLK, C,8.91,EI,"2-Pentene, 4-methyl-, (E)-","Lossing and Traeger, 1975"
 691-38-3,LLK, C,8.98 ¡À 0.02,PE,"2-Pentene, 4-methyl-, (Z)-","Bieri, Burger, et al., 1977"
 7688-21-3,LLK, C,8.969 ¡À 0.005,PE,"2-Hexene, (Z)-","Masclet, Grosjean, et al., 1973"
 592-43-8,, C,8.88 ¡À 0.02,PE,2-Hexene,"Ashmore and Burgess, 1978"
 4806-61-5,, C,9.38 ¡À 0.05,EI,"Cyclobutane, ethyl-","Holmes and Lossing, 1991"
 558-37-2,LLK, C,9.45 ¡À 0.02,PE,"1-Butene, 3,3-dimethyl-","Bieri, Burger, et al., 1977"
 4127-45-1,LL, C,8.90 ¡À 0.05,EI,"Cyclopropane, 1,1,2-trimethyl-","Holmes and Lossing, 1991"
 27416-06-4,, C,9.01,EI,"1-Butene, 2,3-dimethyl-","Lossing and Traeger, 1975"
 770-12-7,, C,9.1,PE,"Phosphorodichloridic acid, phenyl ester","Zverev, Vilesov, et al., 1975"
 824-72-6,Vertical value; , C,9.95,PE,"Phosphonic dichloride, phenyl-","Zverev, Villem, et al., 1978"
 60027-50-1,Vertical value, C,8.0 ¡À 0.1,PE,"2-Pentanone, 4-methyl-4-nitroso-","Egdell, Green, et al., 1975"
 1435-53-6,, C,9.05 ¡À 0.02,PE,"2,4-Dibromo-1-fluorobenzene","Mohraz, Maier, et al., 1980"
 30980-11-1,Vertical value; , C,10,PE,"Cyclohexanamine, N-sulfinyl-","Kroner, Strack, et al., 1973"
 99-35-4,LLK, C,10.96 ¡À 0.02,PI,"1,3,5-Trinitrobenzene","Kotov and Potapov, 1972"
 16703-52-9,Vertical value, C,9.31,PE,"Ethyl N,N-dimethyloxamate","Meeks and McGlynn, 1975"
 3497-00-5, , C,9.02,PE,"Phosphonothioic dichloride, phenyl-","Vovna, Lopatin, et al., 1974"
 608-31-1,LLK, C,7.60 ¡À 0.02,PE,"Benzenamine, 2,6-dichloro-","Maier and Turner, 1973"
 644-97-3,LLK, C,9.10 ¡À 0.01,PE,"Phosphonous dichloride, phenyl-","Debies and Rabalais, 1974"
 105-60-2,RDSH, C,9.07 ¡À 0.02,PI,Caprolactam,"Potapov, Filyugina, et al., 1968"
 100-64-1,, C,8.97 ¡À 0.03,PI,"Cyclohexanone, oxime","Golubitskii, Kulikov, et al., 1979"
 1445-73-4,LLK, C,8.3,PE,"4-Piperidinone, 1-methyl-","Sarneel, Worrell, et al., 1980"
 931-20-4,Vertical value; , C,8.92,PE,"2-Piperidinone, 1-methyl-","Treschanke and Rademacher, 1985"
 23135-18-4,LLK, C,9.0 ¡À 0.1,EI,"Butenamide, N,N-dimethyl-","Mathar, Bohlmann, et al., 1973"
 85689-01-6,Vertical value, C,8.9,PE,"2-Azabicyclo[2.2.1]heptane, 2-hydroxy-","Schmidt, Ballschmidt, et al., 1983"
 18162-48-6,Vertical value, C,9.77,PE,"Silane, chloro(1,1-dimethylethyl)dimethyl-","Block, Biernbaum, et al., 1977"
 100-37-8,Vertical value, C,8.58 ¡À 0.03,PE,"N,N-Diethyl-2-aminoethanol","Leavell, Steichen, et al., 1973"
 102-71-6, , C,7.9,PE,Triethanolamine,"Cradock, Ebsworth, et al., 1975"
 39652-40-9, , C,9.5,PE,"Imidodiphosphorous tetrachloride, phenyl-","Pradeep and Hedge, 1990"
 100-56-1,LLK, C,9.1,PE,"Mercury, chlorophenyl-","Furlani, Piancastelli, et al., 1981"
 12192-47-1, , C,8.3,PE,"Iron, tricarbonylchloro(¦Ç3-2-propenyl)-","Louwen, Hart, et al., 1982"
 98-13-5,, C,9.1,PE,Phenyl trichlorosilane,"Veszpremi, Harada, et al., 1984"
 7579-91-1,, C,9.0 ¡À 0.1,EI,"Silane, trichloro(phenylthio)-","Distefano, Ricci, et al., 1974"
 4667-99-6,Vertical value, C,10.52,PE,"Silane, chlorotriethoxy-","Green, Lappert, et al., 1971"
 106-48-9,RDSH, C,9.07,EI,"Phenol, 4-chloro-","Crable and Kearns, 1962"
 95-57-8,RDSH, C,9.28,EI,"Phenol, 2-chloro-","Crable and Kearns, 1962"
 108-43-0,Cis isomer; , C,8.655 ¡À 0.001,LS,"Phenol, 3-chloro-","Cockett, Takahashi, et al., 1991"
 78957-21-8,LLK, C,8.9,PE,Cyclopentadiene-5-carbonyl chloride,"Bock, Hirabayashi, et al., 1981"
 108-90-7,LBLHLM, C,9.08,PE,"Benzene, chloro-","Fujisawa, Ohno, et al., 1986"
 368-47-8,Vertical value, C,10.23,PE,Trifluorophenylsilane,"Veszpremi, Harada, et al., 1984"
 97-94-9,LLK, C,9.6,PE,"Borane, triethyl-","Holliday, Reade, et al., 1971"
 2713-48-6,Vertical value, C,10.07,PE,"1,3,5,2,4,6-Triazatriphosphorine,2,2,4,4,6-pentafluoro-2,2,4,4,6,6-hexahydro-6-phenyl-","Allen and Green, 1980"
 150-46-9,, C,10.13,EI,Triethyl borate,"Lappert, Litzow, et al., 1970"
 462-06-6,LBLHLM, C,9.2,PE,"Benzene, fluoro-","Fujisawa, Ohno, et al., 1986"
 367-25-9,Vertical value; , C,8.54,PE,"2,4-Difluoroaniline","Furin, Sultanov, et al., 1987"
 5509-65-9,Vertical value, C,8.58,PE,"2,6-Difluoroaniline","Furin, Sultanov, et al., 1987"
 367-30-6,Vertical value, C,8.41,PE,"Benzenamine, 2,5-difluoro-","Furin, Sultanov, et al., 1987"
 5580-80-3,Vertical value, C,8.7,PE,"Benzenamine, 2,3,4,5-tetrafluoro-","Furin, Sultanov, et al., 1987"
 700-17-4,Vertical value, C,8.9,PE,"2,3,5,6-Tetrafluoroaniline","Furin, Sultanov, et al., 1987"
 371-41-5,Vertical value; , C,8.79 ¡À 0.02,PE,"Phenol, 4-fluoro-","Maier, Marthaler, et al., 1980"
 25121-84-0,Vertical value, C,8.43,PE,"Thieno[2,3-b]thiophene,3-bromo-","Coustale, Guimon, et al., 1976"
 367-12-4,LBLHLM, C,8.68 ¡À 0.02,S,"Phenol, 2-fluoro-","Oikawa, Abe, et al., 1985"
 372-20-3,LBLHLM, C,8.73 ¡À 0.03,S,"Phenol, 3-fluoro-","Oikawa, Abe, et al., 1985"
 25121-81-7,Vertical value, C,8.35,PE,"Thieno[2,3-b]thiophene,2-bromo-","Coustale, Guimon, et al., 1976"
 626-39-1, , C,9.1,PE,"Benzene, 1,3,5-tribromo-","Kimura, Katsumata, et al., 1981"
 37474-14-9,Vertical value, C,8.26,PE,"Manganese, bromotetracarbonyl(isocyanomethane)-","Lichtenberger, Sarapu, et al., 1973"
 367-23-7,LLK, C,9.304 ¡À 0.008,EQ,"1,2,4-Trifluorobenzene","Lias and Ausloos, 1978"
 1489-53-8,LLK, C,9.4,PE,"1,2,3-Trifluorobenzene","Maier and Thommen, 1981"
 372-38-3,LLK, C,9.5,PE,"1,3,5-Trifluorobenzene","Maier and Thommen, 1981"
 58450-74-1,, C,7.45 ¡À 0.02,EI,"Manganese,(carbonothioyl)(¦Ç","Efraty and Huang, 1980"
 26149-08-6,, C,9.64 ¡À 0.05,EI,"Ethanone,2,2,2-trifluoro-1-(selenophene-2-yl)-","Linda, Marino, et al., 1971"
 2268-16-8,Vertical value, C,9.10 ¡À 0.02,PE,"Phenol,2,4,5-trifluoro-","Maier, Marthaler, et al., 1980"
 2822-41-5,Vertical value, C,9.19 ¡À 0.02,PE,"Phenol,2,3,4-trifluoro-","Maier, Marthaler, et al., 1980"
 18207-47-1,, C,9.77 ¡À 0.05,EI,"Ethanone,2,2,2-trifluoro-1-(2-furanyl)-","Linda, Marino, et al., 1971"
 30933-31-4,, C,9.63 ¡À 0.05,EI,"Ethanone,2,2,2-trifluoro-1-(3-thienyl)-","Linda, Marino, et al., 1971"
 651-70-7,, C,9.70 ¡À 0.05,EI,"Ethanone,2,2,2-trifluoro-1-(2-thienyl)-","Linda, Marino, et al., 1971"
 348-61-8,, C,9.19 ¡À 0.02,PE,"1-Bromo-3,4-difluorobenzene","Mohraz, Maier, et al., 1980"
 348-57-2,, C,9.16 ¡À 0.02,PE,"Benzene, 1-bromo-2,4-difluoro-","Mohraz, Maier, et al., 1980"
 399-94-0,, C,9.18 ¡À 0.02,PE,"Benzene, 2-bromo-1,4-difluoro-","Mohraz, Maier, et al., 1980"
 40306-97-6,Vertical value, C,9.22,PE,"Tetrazolo[1,5-a]pyridine-8-carbonitrile","Kovac, Klasinc, et al., 1980"
 204-34-2,, C,9.16,PE,"1,3,4,6,7,9,9b-Heptaazaphenalene","Rossman, Leonard, et al., 1985"
 540-38-5,, C,8.06,PE,"Phenol, 4-iodo-","Behan, Johnstone, et al., 1976"
 591-50-4,LBLHLM, C,8.79,PE,"Benzene, iodo-","Fujisawa, Ohno, et al., 1986"
 95-14-7,LLK, C,9.20 ¡À 0.05,EI,1H-Benzotriazole,"Thorstad and Undheim, 1974"
 766-55-2,Vertical value, C,8.33,PE,"Imidazo[1,2-b]pyridazine","Kovac, Klasinc, et al., 1980"
 622-37-7,LLK, C,8.4,PE,"Benzene, azido-","Bastide, Maier, et al., 1976"
 54459-90-4,, C,9.01 ¡À 0.05,EI,"[1,2,3]Thiadiazolo[5,4-b]pyridine,5-methoxy-","Thorstad and Undheim, 1974"
 619-18-1,, C,8.89 ¡À 0.01,PI,"2,5-Dinitroaniline","Potapov, Kardash, et al., 1972"
 88-75-5,LLK, C,9.1,PE,"Phenol, 2-nitro-","Kobayashi and Nagakura, 1975"
 100-02-7,LLK, C,9.1,PE,"Phenol, 4-nitro-","Kobayashi and Nagakura, 1975"
 554-84-7,LLK, C,9,PE,"Phenol, 3-nitro-","Kobayashi and Nagakura, 1975"
 61856-52-8, , C,7.7,PE,"3-Pyridinecarboxaldehyde, 2-mercapto-","Dreier, Becher, et al., 1981"
 1122-83-4,LBLHLM, C,8.8,PE,"Benzenamine, N-sulfinyl-","Louwen, Van Dam, et al., 1982"
 586-96-9,LLK, C,8,PE,"Benzene, nitroso-","Egdell, Green, et al., 1975"
 27659-36-5,, C,9.7,EI,Cyclopentadienecarbonitrile,"Hedaya, Kent, et al., 1968"
 872-85-5,RDSH, C,10.12 ¡À 0.05,EI,4-Pyridinecarboxaldehyde,"Basila and Clancy, 1963"
 1121-60-4,, C,9.75 ¡À 0.05,EI,2-Pyridinecarboxaldehyde,"Basila and Clancy, 1963"
 2122-46-5,LLK, C,8.56 ¡À 0.02,PE,Phenoxy radical,"Dewar and David, 1980"
 98-95-3,LBLHLM, C,~9.67,PE,"Benzene, nitro-","Klasinc, Kovac, et al., 1983"
 59-67-6,LLK, C,9.38,PE,Niacin,"Dougherty, Younathan, et al., 1978"
 124-02-7,LLK, C,8.2,PE,"2-Propen-1-amine, N-2-propenyl-","Peel and Willett, 1977"
 80839-93-6,LLK, C,7.6,PE,"Aziridine, 1-(2-methyl-1-propenyl)-","Muller and Previdoli, 1981"
 694-55-3,Vertical value; , C,8.67 ¡À 0.05,PE,"1-Methyl-1,2,3,6-tetrahydropyridine","Morishima, Yoshikawa, et al., 1975"
 80839-92-5,LLK, C,7.7,PE,"Aziridine, 1-(1-butenyl)-, (E)-","Muller and Previdoli, 1981"
 80839-94-7,LLK, C,7.9,PE,"Aziridine, 1,-(1-butenyl)-, (Z)-","Muller and Previdoli, 1981"
 279-24-3,Vertical value, C,8.5,PE,2-Azabicyclo[2.2.1]heptane,"Schmidt, Ballschmidt, et al., 1983"
 279-40-3, , C,8.4,PE,7-Azanorbornane,"Altenbach, Constant, et al., 1991"
 3653-19-8,LLK, C,8.9,PE,"(E)-5-Azahepta-2,4-diene","Vocelle, Dargelos, et al., 1977"
 2214-81-5, , C,8.4,PE,"3,4,5,6-Tetrahydro-2H-azepine","Bock and Dammel, 1987"
 121-44-8,LL, C,7.47 ¡À 0.04,PE,Triethylamine,"Mathis and Compton, 1996"
 111-26-2,LLK, C,8.6,PE,1-Hexanamine,"Aue and Bowers, 1979"
 142-84-7,LLK, C,7.8 ¡À 0.1,PE,"1-Propanamine, N-propyl-","Aue, Webb, et al., 1976"
 30594-15-1, , C,8.2,PE,"Phosphinic acid, diethenyl-, ethyl ester","Zverev, Villem, et al., 1981"
 918-02-5,Vertical value; , C,8.08,PE,"2-Propanamine, N,N,2-trimethyl-","Nelsen, 1984"
 927-62-8,Vertical value; , C,8.35,PE,"1-Butanamine, N,N-dimethyl-","Nelsen, 1984"
 108-18-9,LLK, C,7.6 ¡À 0.1,PE,Diisopropylamine,"Aue, Webb, et al., 1976"
 66175-25-5,Vertical value, C,8.1,PE,"1,2,4-Triazine,hexahydro-1,2,4-trimethyl-","Katritzky, Baker, et al., 1980"
 108-74-7,LBLHLM, C,7.6,PE,"1,3,5-Triazine, hexahydro-1,3,5-trimethyl-","Beck, Hunig, et al., 1986"
 13439-84-4,RDSH, C,7.84 ¡À 0.05,EI,"N,N,N',N',N''-Pentamethylguanidine","Loudon, Maccoll, et al., 1968"
 638-14-2,Vertical value, C,8.45 ¡À 0.05,PE,"hexahydro-2,4,6-trimethyl-1,3,5-triazine","Frost, MacDonald, et al., 1978"
 33726-89-5,Vertical value, C,7.86,PE,"Tin, (dimethylcarbamodithioato-s,s')trimethyl-","Cauletti, Nicotra, et al., 1980"
 7239-24-9,Vertical value; , C,8.31,PE,"1-Propanamine, N,N,2-trimethyl","Nelsen, 1984"
 999-97-3,Vertical value; , C,8.55,PE,Hexamethyldisilazane,"Molder, Pikver, et al., 1983"