CAS,Comment,Formula,IE,Method,Name,Refer
 3248-58-6,RDSH, C,10.6 ¡À 0.1,EI,"2,2,2-Trifluoroethyl radical","Fisher, Homer, et al., 1965"
 463-51-4,LL, C,9.6191 ¡À 0.0004,PE,Ketene,"Niu, Bai, et al., 1993"
 61134-37-0,LLK, C,8.7,PE,Selenoketene,"Bock, Aygen, et al., 1980"
 107-22-2,LL, C,10.2,PE,Glyoxal,"Buhl, Kramme, et al., 1991"
 121564-25-8,, C,8.86 ¡À 0.04,EI,Ethynesulfenic acid,"Turecek, Brabec, et al., 1988"
 2317-91-1,, C,10.7 ¡À 0.2,EI,"Ethene, 1-chloro-1-fluoro-","Syrvatka, Gil'burd, et al., 1972"
 2268-32-8,, C,9.87 ¡À 0.02,PI,(E)-1-Chloro-2-fluoroethene,"Momigny, 1963"
 2268-31-7,, C,9.86 ¡À 0.02,PI,(Z)-1-Chloro-2-fluoroethene,"Momigny, 1963"
 1630-77-9,LBLHLM, C,10.2,PI,"(Z)-1,2-Difluoroethylene","Frenking, Koch, et al., 1984"
 1630-78-0,LBLHLM, C,10.15,PI,"(E)-1,2-Difluoroethylene","Frenking, Koch, et al., 1984"
 75-38-7,LBLHLM, C,10.29,PI,"Ethene, 1,1-difluoro-","Frenking, Koch, et al., 1984"
 66348-15-0, , C,11.4,PE,"Germane, bis(trifluoromethyl)-","Drake, Gorzelska, et al., 1982"
 6755-54-0,, C,10.529 ¡À 0.007,PE,"Ethylene-1,1-d2","Carlier and Botter, 1979"
 2813-62-9,LLK, C,10.521 ¡À 0.007,PE,"(Z)-Ethylene-1,2-d2","Carlier and Botter, 1979"
 1517-53-9,, C,10.525 ¡À 0.007,PE,"(E)-1,2-Dideuteroethylene","Carlier and Botter, 1979"
 6839-93-6,Vertical value, C,8.18,PE,"Phosphinothioic bromide, dimethyl-","Elbel and Dieck, 1976"
 10218-90-3, , C,8.61,PE,"Dimethylamine, N-bromo-","Colbourne, Frost, et al., 1979"
 64-17-5,LL, C,10.41 ¡À 0.05,EI,Ethanol,"Holmes and Lossing, 1991"
 115-10-6,LBLHLM, C,10.025 ¡À 0.025,PIPECO,Dimethyl ether,"Butler, Holland, et al., 1984"
 690-02-8,LLK, C,9.1,PE,"Peroxide, dimethyl","Kimura and Osafune, 1975"
 107-21-1,LBLHLM, C,10.16,EI,"1,2-Ethanediol","Holmes and Lossing, 1982"
 60-24-2,LLK, C,9.1,PE,"Ethanol, 2-mercapto-","Kimura, Katsumata, et al., 1981"
 1730-66-1,Vertical value, C,10.14,PE,"Dimethylgermane, dibromo-","Drake and Gorzelska, 1981"
 67-68-5,LLK, C,9.1,PE,Dimethyl Sulfoxide,"Kimura, Katsumata, et al., 1981"
 67-71-0,Vertical value; , C,10.65,PE,Dimethyl sulfone,"Solouki, Bock, et al., 1975"
 74-86-2,LBLHLM, C,11.41 ¡À 0.01,EI,Acetylene,"Plessis and Marmet, 1986"
 31682-64-1,Vertical value; , C,11,PE,"Phosphinyl radical, dimethoxy-","Betteridge, Thompson, et al., 1972"
 593-80-6,LBLHLM, C,7.85,PE,dimethyl telluride,"Chang, Young, et al., 1986"
 616-42-2,LLK, C,9.9,PE,"Sulfurous acid, dimethyl ester","Bock and Solouki, 1974"
 1111-83-7,Vertical value; , C,9.15,PE,"Silane, dimethylthioxo-","Guimon, Pfister-Guillouzo, et al., 1983"
 75-18-3,LBLHLM, C,8.6,PE,Dimethyl sulfide,"Carnovale, Livett, et al., 1983"
 2353-98-2,Vertical value, C,10.35,PE,"Phosphoranamine, 1,1,1,1-tetrafluoro-N,N-dimethyl-","Cowley, Dewar, et al., 1973"
 507-15-3,LLK, C,8.8,PE,Dimethyl fluorophosphine,"Lappert, Pedley, et al., 1975"
 75-08-1,LBLHLM, C,9.28,PI,Ethanethiol,"Traeger, 1984"
 3658-80-8,RDSH, C,8.73 ¡À 0.03,PE,Dimethyl trisulfide,"Cullen, Frost, et al., 1969"
 406-34-8,LLK, C,9.1,PE,"Ethylamine, 2-fluoro-","Aue and Bowers, 1979"
 3880-04-4,, C,9.8,EI,"1,3,2,4-Diazadiphosphetidine,2,2,2,4,4,4-hexafluoro-2,2,4,4-tetrahydro-1,3-dimethyl-","Baldwin, Loudon, et al., 1977"
 60387-29-3,Vertical value, C,9.4 ¡À 0.05,PE,"Arsine, dimethyl(trifluorosilyl)-","Demuth, 1977"
 811-70-1,Vertical value, C,10.45,PE,"Germane, difluorodimethyl-","Drake, Glavincevski, et al., 1979"
 353-66-2,LLK, C,11.03 ¡À 0.03,PI,"Silane, difluorodimethyl-","Murphy and Beauchamp, 1977"
 557-89-1,, C,9.9 ¡À 0.1,EI,"Arsine, chlorodimethyl-","Cullen and Frost, 1962"
 624-92-0,LL, C,8.2 ¡À 0.2,IMB,"Disulfide, dimethyl","Leeck and Kenttamaa, 1994"
 37037-03-9,Vertical value, C,9.20 ¡À 0.05,PE,"Arsine, dimethyl(trichlorosilyl)-","Demuth, 1977"
 540-63-6,LBLHLM, C,9.3,PI,"1,2-Ethanedithiol","Butler, Baer, et al., 1983"
 51095-15-9,LL, C,9.5,DER,Ethynyloxy radical,"Lias, Bartmess, et al., 1988"
 506-82-1,RDSH, C,8.56 ¡À 0.02,PI,dimethylcadmium,"Distefano and Dibeler, 1970"
 812-14-6,Vertical value, C,9.60 ¡À 0.05,PE,"Silanamine, 1,1,1-trifluoro-N,N-dimethyl-","Demuth, 1977"
 814-97-1, , C,10.2 ¡À 0.3,EI,"Phosphoramidous difluoride, dimethyl-","Paine, Sodeck, et al., 1972"
 1184-58-3,Vertical value, C,10.25,PE,dimethylaluminium chloride,"Barker, Lappert, et al., 1975"
 2938-72-9,Vertical value, C,9.48,PE,"Aluminum, iododimethyl-","Barker, Lappert, et al., 1975"
 61509-77-1,Vertical value, C,8.64,PE,"Phosphinoselenoic chloride, dimethyl-","Elbel and Dieck, 1976"
 3017-85-4,Vertical value, C,9.9,PE,"Aluminum, bromodimethyl-","Barker, Lappert, et al., 1975"
 62630-46-0, , C,9.74,PE,"Boron, trihydro(isocyanomethane)","Bevan, Sandorfy, et al., 1981"
 1585-74-6,LBLHLM, C,8.75,PE,(CH3)2NCl,"Molder, Pikver, et al., 1983"
 41032-51-3,Vertical value, C,9.1 ¡À 0.05,PE,"Phosphorane, dichloro(chlorothio)dimethyl-","Demuth, 1977"
 20693-67-8,LLK, C,9.77,PE,"1,6-Dicarbahexaborane(6)","Fehlner, 1975"
 7318-72-1,RDSH, C,8.99,EI,"Boranediamine, 1,1-diiodo-N,N-dimethyl-","Lappert, Litzow, et al., 1970"
 27545-48-8,, C,8.9,EI,Iodobis(methylthio)borane,"Lappert, Litzow, et al., 1970"
 1113-31-1,LLK, C,9.56,PE,Dimethyl (dichloroboryl)amine,"Bock and Fuss, 1971"
 868-81-5,, C,10.83,EI,"Borane, chlorodimethoxy-","Lappert, Litzow, et al., 1970"
 29877-94-9,, C,9.64,EI,Chlorobis(methylthio)borane,"Lappert, Litzow, et al., 1970"
 38481-07-1,, C,9.65,EI,Dimethylaminofluorochloroborane,"Lappert, Litzow, et al., 1970"
 1803-36-7,LLK, C,10.2,PE,Chlorodimethylborane,"Berger, Kroner, et al., 1976"
 75-78-5, , C,10.7,PE,"Silane, dichlorodimethyl-","Green, Lappert, et al., 1971"
 29878-02-2,, C,9.63,EI,Iodo-bis(methoxy)borane,"Lappert, Litzow, et al., 1970"
 17933-09-4,Vertical value, C,9.48,PE,"Borane, iododimethyl-","Barker, Lappert, et al., 1975"
 1529-48-2, , C,10.18 ¡À 0.05,EI,Dimethylgermanium dichloride,"Tamas, Czira, et al., 1972"
 993-12-4,Vertical value, C,9.12,PE,dimethylthiophosphinic chloride,"Elbel and Dieck, 1976"
 753-73-1,LLK, C,10.43,PE,"Tin, dichlorodimethyl-","Fragala, Ciliberto, et al., 1980"
 811-62-1,LBLHLM, C,9,PE,Chloro(dimethyl)phosphine,"Bock and Bankmann, 1986"
 677-43-0,Vertical value, C,9.31,PE,(Dimethylamino)phosphonic dichloride,"Vovna, Lopatin, et al., 1975"
 25592-09-0,Vertical value, C,9.04,PE,"1,2,4,3,5-Trithiadiborolane,3,5-dimethyl-","Kroner, Nolle, et al., 1975"
 29877-90-5,, C,9.79,EI,Fluoro-bis(methylthio)borane,"Lappert, Litzow, et al., 1970"
 13307-04-5,Vertical value, C,9.3,PE,"Silanamine, 1,1,1-trichloro-N,N-dimethyl-","Green, Lappert, et al., 1971"
 367-46-4,, C,10.92,EI,fluorodimethoxyborane,"Lappert, Litzow, et al., 1970"
 1498-65-3, , C,8.97 ¡À 0.04,PE,"Phosphoramidothioic dichloride, dimethyl-","Vilesov, Lopatin, et al., 1974"
 29877-98-3,, C,9.55,EI,Bromobis(methylthio)borane,"Lappert, Litzow, et al., 1970"
 7360-64-7,LLK, C,9.6,PE,"Boranamine, 1,1-dibromo-N,N-dimethyl-","Bock and Fuss, 1971"
 29877-96-1,, C,10.62,EI,Bromobis(methoxy)borane,"Lappert, Litzow, et al., 1970"
 38481-09-3,, C,9.68,EI,"1-Bromo-1-fluoro-N,N-dimethylboranamine","Lappert, Litzow, et al., 1970"
 683-85-2,Vertical value; , C,9.5,PE,"Phosphoramidous dichloride, dimethyl-","Lappert, Pedley, et al., 1975"
 359-18-2,LBLHLM, C,8.9,PE,"Boranamine, 1,1-difluoro-N,N-dimethyl-","Kroto and McNaughton, 1985"
 1111-92-8,Vertical value, C,10.77,PE,dimethylphosphinic chloride,"Elbel and Dieck, 1976"
 5158-50-9,LLK, C,10.25,PE,Dimethylboron bromide,"Berger, Kroner, et al., 1976"
 353-46-8,Vertical value, C,11.25,PE,"Borane, fluorodimethyl-","Berger, Kroner, et al., 1976"
 38481-12-8,, C,9.61,EI,"Boron, (dimethylamino)-fluoride iodide-","Lappert, Litzow, et al., 1970"
 506-63-8,, C,10.67 ¡À 0.07,EI,Dimethylberyllium,"Chambers, Coates, et al., 1969"
 74-84-0,LL, C,11. ¡À 1.,PI,Ethane,"Au, Cooper, et al., 1993"
 3743-07-5,Vertical value, C,9.76,PE,Dimethylchlorophosphite,"Zverev, Bazhanova, et al., 1986"
 78957-22-9,Vertical value; , C,9.1,PE,Bromoketene,"Bock, Hirabayashi, et al., 1981"
 593-61-3,LLK, C,10.31 ¡À 0.02,PE,"Acetylene, bromo-","Allan, Kloster-Jensen, et al., 1977"
 598-16-3,, C,9.27 ¡À 0.01,PI,"Ethene, tribromo-","Watanabe, Nakayama, et al., 1962"
 624-74-8,LBLHLM, C,9.02 ¡À 0.01,PE,"Acetylene, diiodo-","Klapstein, Maier, et al., 1983"
 460-96-8,Vertical value, C,11.5,PE,"Phosphine, bis(trifluoromethyl)-","Cowley, Dewar, et al., 1975"
 14545-08-5,LLK, C,9.71,PE,"Ethyne, iodo-","Allan, Kloster-Jensen, et al., 1977"
 151-67-7, , C,11,PE,Halothane,"Dumas, Dupuis, et al., 1981"
 2713-09-9,LLK, C,11.26,PE,"Ethyne, fluoro-","Bieri, Schmelzer, et al., 1980"
 359-11-5,LLK, C,10.14 ¡À 0.02,PE,"Ethene, trifluoro-","Bieri, Niessen, et al., 1981"
 21329-73-7,, C,9.6 ¡À 0.2,EI,"Cobalt, dicarbonylhydrobis(phosphorus trifluoride)-","Saalfeld, McDowell, et al., 1968"
 12602-39-0,, C,10.9 ¡À 0.5,EI,Dicarbon phosphide,"Smoes, Myers, et al., 1971"
 371-74-4,LBLHLM, C,10.5,PE,"Arsine, bis(trifluoromethyl)-","Elbel, Dieck, et al., 1982"
 2122-48-7,LL, C,11.61 ¡À 0.07,DER,Ethynyl radical,"Norwood and Ng, 1989"
 513-92-8,LBLHLM, C,8.6,PE,"Ethene, tetraiodo-","Potts, Novak, et al., 1983"
 12071-33-9,LLK, C,6.4 ¡À 0.5,EI,Uranium dicarbide,"Gupta and Gingerich, 1979"
 12340-54-4,, C,7.5 ¡À 0.5,EI,Zirconium dicarbide,"Kohl and Stearns, 1974"
 12071-21-5,, C,6.6 ¡À 0.3,EI,Neodymium dicarbide,"Balducci, Capalbi, et al., 1968"
 12071-31-7,LLK, C,6.4 ¡À 0.5,EI,thorium dicarbide,"Gupta and Gingerich, 1980"
 37306-47-1,, C,8.1 ¡À 0.4,EI,Rhodium dicarbide,"Cocke and Gingerich, 1972"
 12175-89-2,, C,8. ¡À 1.,EI,Lutetium dicarbide,"Guido, Balducci, et al., 1972"
 91899-22-8,, C,8.5,EI,"2-Arsapropene, pentafluoro-","Binnewies, Grosse, et al., 1985"
 12539-98-9,, C,10.7,EI,Boron dicarbide,"Verhaegen, Stafford, et al., 1964"
 12071-14-6,, C,7.3 ¡À 0.5,EI,Holmium dicarbide,"Balducci, Capalbi, et al., 1969"
 12175-80-3,, C,8.3 ¡À 0.5,EI,Dysprosium dicarbide,"Balducci, Capalbi, et al., 1969"
 12127-44-5,, C,6.6 ¡À 0.7,EI,Europium dicarbide,"Balducci, De Maria, et al., 1972"
 12192-37-9,, C,7.0 ¡À 0.5,EI,Erbium dicarbide,"Balducci, DeMaria, et al., 1969"
 12070-15-4,LL, C,11.41 ¡À 0.30,CIEL,Dicarbon,"Reid, Ballantine, et al., 1995"
 359-53-5,, C,11.0 ¡À 0.1,EI,Chlorobis(trifluomethyl)arsine,"Cullen and Frost, 1962"
 42617-16-3,, C,6.1 ¡À 0.2,LE,Chlorophyll a,"Nakato, Chiyoda, et al., 1974"
 14405-49-3,Vertical value, C,9.7,PE,"Iron, tris(1,3-diphenyl-1,3-propanedionato-O,O')-, (OC-6-11)-","Shcheka and Vovna, 1992"
 57525-41-4,, C,6.82,CTS,"Cyclopenta-1,3-dienide,1,4-diphenyl-5-triphenylphosphinylium-2,3-(naphtha-1,8-diyl),inner salt","Kreicberga, Kampars, et al., 1975"
 16666-80-1,Vertical value, C,6.04,PE,"Phosphorane,(1-methylethylidene)triphenyl-","Starzewski and Bock, 1976"
 6224-63-1,Vertical value, C,7.68,PE,"Phosphine, tris(3-methylphenyl)-","Weiner, Lattman, et al., 1975"
 6163-58-2,Vertical value, C,7.64,PE,"Phosphine, tris(2-methylphenyl)-","Weiner, Lattman, et al., 1975"
 1038-95-5,Vertical value, C,7.6,PE,"Phosphine, tris(4-methylphenyl)-","Weiner, Lattman, et al., 1975"
 129-03-3,, C,7.94 ¡À 0.06,CTS,Cyproheptadine,"Fulton and Lyons, 1968"
 855-38-9,Vertical value, C,7.48,PE,"Phosphine, tris(4-methoxyphenyl)-","Weiner, Lattman, et al., 1975"
 4731-65-1,Vertical value, C,7.37,PE,Tris(2-methoxyphenyl)phosphine,"Weiner, Lattman, et al., 1975"
 29949-84-6,Vertical value, C,7.72,PE,Tris(3-methoxyphenyl)phosphine,"Weiner, Lattman, et al., 1975"
 15321-51-4,RDSH, C,7.91 ¡À 0.01,EI,tri-¦Ì-carbonylhexacarbonyldiiron,"Junk, Preston, et al., 1970"
 18848-96-9,Vertical value, C,7.67,PE,"Phosphine, tris[4-(trimethylsilyl)phenyl]-","Weiner, Lattman, et al., 1975"
 20143-13-9,Vertical value, C,8.20 ¡À 0.08,PE,"Benzene, 1,1',1'',1'''-(1-propyn-1-yl-3-ylidyne)tetrakis-","Elbel, Lienert, et al., 1981"
 24416-28-2,, C,8.01 ¡À 0.05,EI,"Propane-1,3-dione, 1,3-diphenyl-2-(phenylimino)-","Moskal, Moskal, et al., 1984"
 15745-93-4,, C,8.37,EI,"2,4-Azetidinedione,1,3,3-triphenyl-","Compernolle and DeSchryver, 1975"
 58090-78-1,, C,7.75 ¡À 0.05,EI,"Cyclopropenylium,triphenyl-, chloride","Gyorosi, Hvistendahl, et al., 1975"
 40438-59-3,Vertical value, C,8.12,PE,"Benzoic acid,4-(dicyclohexylphosphino)-ethyl ester","Goetz, Marschner, et al., 1976"
 55027-93-5,Vertical value, C,7.76 ¡À 0.03,PE,"8H-Cyclohepta[b]naphthalen-8-one,7,9-bis(1-methylethyl)-","Allan, Heilbronner, et al., 1975"
 99643-38-6,Vertical value, C,6.45,PE,"1,1'3,3',5,5'6,6'-Octamethyl-2,2'-spiro[2,3-dihydro-1H-benzimidazole","Gleiter and Uschmann, 1986"
 1450-18-6,, C,8.30 ¡À 0.15,EI,"Disilane, 1,1,1-trimethyl-2,2,2-triphenyl-","Gaidis, Briggs, et al., 1971"
 17084-78-5,, C,7.78 ¡À 0.08,EI,"Cobalt,[[2,2'-[1,7-heptanediylbis(nitrilomethylidyne)]bis[phenolato]](2-)-N,N',o,o']-,(t-4)-","Taylor and Dillard, 1974"
 52279-50-2,, C,7.81 ¡À 0.07,EI,"Copper,[[2,2'-[1,7-heptanediylbis(nitrilomethylidyne)]bis[phenolato]](2-)-N,N',o,o']-","Taylor and Dillard, 1974"
 99643-43-3,Vertical value, C,6.5,PE,"1,1'3,3'-Tetramethylspiro[2,3-dihydrobenzimidazole-2,2'-[2,3]dihydro[1H]perimidine","Gleiter and Uschmann, 1986"
 40168-14-7,Vertical value, C,7.38,PE,"2-Propanamine,N-(triphenylphosphoranylidene)-","Starzewski and Dieck, 1979"
 13892-06-3,Vertical value, C,8.05,PE,N-Trimethylsilyliminotriphenylphosphorane,"Starzewski and Dieck, 1979"
 117-89-5,LLK, C,7.10 ¡À 0.07,CTS,Trifluoperazine,"Poltorakov, Pirnazarova, et al., 1973"
 50-52-2,RDSH, C,7.20 ¡À 0.05,CTS,Thioridazine,"Fulton and Lyons, 1968"
 84-04-8,, C,7.15 ¡À 0.10,CTS,Pipamazine,"Fulton and Lyons, 1968"
 1617-90-9,, C,7.41 ¡À 0.05,EI,Vincamine,"Czira, Tamas, et al., 1984"
 6835-99-0,, C,7.38 ¡À 0.05,EI,"Eburnamenine-14-carboxylic acid, 14,15-dihydro-14-hydroxy-, methyl ester, (3¦Á,14¦Á,16¦Á)-","Czira, Tamas, et al., 1984"
 52279-42-2,, C,8.26 ¡À 0.06,EI,"Phenol,2,2'-[1,7-heptanediylbis(nitrilomethylidyne)]bis-","Taylor and Dillard, 1974"
 52358-03-9,, C,7.69 ¡À 0.09,EI,"Nickel,[[2,2'-[1,7-heptanediylbis(nitrilomethylidyne)]bis[phenolato]](2-)-N,N',O,O']-","Taylor and Dillard, 1974"
 77897-14-4,, C,7.55 ¡À 0.05,PE,Tricyclo[8.2.2.2,"Zhong-zhi, Kovak, et al., 1981"
 58-39-9,, C,8.63 ¡À 0.07,CTS,Perphenazine,"Poltorakov, Pirnazarova, et al., 1973"
 89959-15-9,LBLHLM, C,7.50 ¡À 0.05,PE,"1-Propen-2-ol, 1,1-bis(2,4,6-trimethylphenyl)-","Lecoultre, Heilbronner, et al., 1986"
 36007-20-2,Vertical value, C,6.5,PE,"Titanium, methyl[(1,2,3,4,5-¦Ç)-1,2,3,4,5-pentamethyl-2,4-cyclopentadien-1-yl](¦Ç","Vondrak, Mach, et al., 1992"
 85529-65-3, , C,5.4,PE,"Dicobalt, ¦Ì","Dudeney, Green, et al., 1984"
 47378-46-1,, C,7.27 ¡À 0.05,CTS,Hexaethylbenzenechromium tricarbonyl,"Huttner and Fischer, 1967"
 127517-60-6,Vertical value, C,6.58 ¡À 0.02,PE,"Molybdenum, dipropoxy-oxo[tris(3,5-dimethyl-1H-pyrazolato-N')hydroborato(1-)-N","Chang, Rai-Chaudhuri, et al., 1990"
 21411-39-2,Vertical value; , C,8.17,PE,"1,3,5-Tri-neopentylbenzene","Howell, Goncalves, et al., 1984"
 69020-18-4,Vertical value, C,7.4,PE,"Silane,[(2,4,6-trimethyl-1,3,5-benzenetriyl)tris(methylene)]tris[trimethyl-","Bock and Kaim, 1978"
 25688-42-0,Vertical value, C,8.3,PE,"Phosphine,tris[2-(2-trifluoromethyl)phenyl]-","Weiner, Lattman, et al., 1975"
 13406-29-6,Vertical value, C,8.65,PE,"Phosphine, tris[4-(trifluoromethyl)phenyl]-","Weiner, Lattman, et al., 1975"
 99643-39-7, , C,7.8,PE,"2,2'-Spirobi[naphtho[2,3-d]-1,3-dioxole","Gleiter and Uschmann, 1986"
 99643-42-2, , C,7,PE,"2,2'-Spirobi[naphtho[1,8-de]-1,3-dithiin","Gleiter and Uschmann, 1986"
 59805-16-2,, C,7.94,CTS,"Pyridinium,4-cyano-1-benzoyl-2-oxo-2-phenylethylide","Kokars, Kampars, et al., 1975"
 92630-47-2,, C,4.89 ¡À 0.20,EI,"Propane-1,3-dione, 1-(3-chlorophenyl)-2-(phenylimino)-3-phenyl-","Moskal, Moskal, et al., 1984"
 99643-40-0, , C,7.3,PE,"2,2'-Spirobi[naphtho[2,3-d]-1,3-dithiole","Gleiter and Uschmann, 1986"
 78631-72-8, , C,7.7,PE,"7H-Dibenzo-8,9,10,11-tetrahydro-","Gleiter, Schafer, et al., 1981"
 35187-24-7,LLK, C,7.06 ¡À 0.03,PE,"4,7,12-Trimethylbenz[a]anthracene","Akiyama, Harvey, et al., 1981"
 92630-46-1,, C,6.89 ¡À 0.20,EI,"Propane-1,3-dione, 1-(4-bromophenyl)-2-(phenylimino)-3-phenyl-","Moskal, Moskal, et al., 1984"
 56-49-5,, C,7.66,CTS,3-Methylcholanthrene,"Slifkin and Allison, 1967"
 40425-24-9,Vertical value, C,6.5,PE,"Phosphorin,1-(diethylamino)-1-fluoro-1,1-dihydro-2,4,6-triphenyl-","Schafer, Schweig, et al., 1976"
 29949-82-4,Vertical value, C,7.53,PE,"Phosphine,tris[4-(1-methylethyl)phenyl]-","Weiner, Lattman, et al., 1975"
 14876-47-2,Vertical value; , C,8.05,PE,"Iron,tris(2,2,6,6-tetramethyl-3,5-heptanedionato-o,o')-","Shcheka and Vovna, 1992"
 14877-41-9,, C,8.4 ¡À 0.5,EI,"Tris(2,2,6,6-tetramethyl-3,5-heptanedionato)cobalt","McDonald and Margrave, 1968"
 14319-08-5,, C,10.9 ¡À 0.5,EI,"Tris(2,2,6,6-tetramethyl-3,5-heptanedionato)aluminum","McDonald and Margrave, 1968"
 36231-67-1,Vertical value, C,5.95,PE,"Phosphorin,1,1-bis(diethylamino)-1,1-dihydro-2,4,6-triphenyl-","Schafer, Schweig, et al., 1976"
 15522-71-1,, C,9.8 ¡À 0.5,EI,"Europium, tris(2,2,6,6-tetramethyl-3,5-heptanedionato)-","McDonald and Margrave, 1968"
 85028-86-0,Vertical value, C,7.8,PE,"Mesityl(2,4,6-tri-tert-butylphenyl)diphosphene","Gleiter, Friedrich, et al., 1984"
 35146-63-5,, C,8.3 ¡À 0.1,PI,"L-Cysteine, S-(2-methoxy-2-oxoethyl)-N-[N-[N-[N-(1-oxopropyl)-L-phenylalanyl]-L-leucyl]glycyl]-, methyl ester","Orlov, Varshavsky, et al., 1974"
 92630-44-9,, C,7.20 ¡À 0.06,EI,"Propane-1,3-dione, 1-(4-phenylphenyl)-2-(phenylimino)-3-phenyl-","Moskal, Moskal, et al., 1984"
 50-55-5,, C,7.88,CTS,Reserpine,"Slifkin and Allison, 1967"
 57525-36-7,, C,6.72,CTS,"Cyclopenta-1,3-dienide, 1,4-diphenyl-5-(4-cyanopyridinium)-2,3-(naphtha-1,8-diyl)-","Kreicberga, Kampars, et al., 1975"
 523-42-2,, C,7.35,PI,"1,1'-Diisoamyl-4,4'-cyanine iodide","Terenin, 1961"
 39767-95-8,, C,6,PE,"Phosphinoline,1,1-dihydro-2-phenyl-1,1-bis(phenylmethyl)-","Schafer, Schweig, et al., 1973"
 13180-38-6,Vertical value, C,9.51,PE,"Quinoline,heptafluoro-","Van Den Ham and Van Der Meer, 1972"
 13180-39-7,Vertical value, C,9.29,PE,"Isoquinoline,heptafluoro-","Van Den Ham and Van Der Meer, 1972"
 355-63-5,, C,10.48 ¡À 0.02,PI,Perfluoro-1-heptene,"Watanabe, Nakayama, et al., 1962"
 1591-95-3,Vertical value, C,9.83,PE,perfluorophenyl isocyanate,"Furin, Zibarev, et al., 1989"
 55615-47-9,Vertical value, C,8.8,PE,"Rhenium, pentacarbonyl(trifluoroacetyl)-","Hall, 1975"
 13222-45-2, , C,11.5,PE,"2,3-Pentadiene, 1,1,1,5,5,5-hexafluoro-2,4-bis(trifluoromethyl)-","Gleiter, Saalfrank, et al., 1983"
 773-82-0,Vertical value; , C,10.1,PE,"Benzonitrile, pentafluoro-","Maier, Marthaler, et al., 1980"
 14099-62-8,Vertical value; , C,9,PE,"Manganese, pentacarbonyl(trifluoroacetyl)-","Evans, Green, et al., 1969"
 22605-15-8,Vertical value, C,5.9,PE,"Phosphorin,1,1-dihydro-1,1,2,4,6-pentaphenyl-","Schafer, Schweig, et al., 1976"
 2251-50-5,LLK, C,9.8,PE,Pentafluorobenzoyl chloride,"Meeks, Wahlborg, et al., 1981"
 2154-55-4,T = 0K, C,7.2385 ¡À 0.0006,LS,Benzyl-d7 radical,"Eiden and Weisshaar, 1991"
 32997-03-8,, C,7.99 ¡À 0.13,EI,"Plumbane, (1,1-dimethylethyl)trimethyl-","Lappert, Pedley, et al., 1971"
 2388-51-4,Vertical value, C,7.29 ¡À 0.01,PE,"Benzenamine,N,N-dimethyl-4-(methylthio)-","Bernardi, Distefano, et al., 1975"
 4522-93-4,Vertical value, C,10.05,PE,Ethyl pentafluorobenzoate,"Petrachenko, Vovna, et al., 1992"
 16456-52-3, , C,8.29,PE,"1,3,2-Diazaphosphorinane, 2-oxide, 2-phenoxy-","Edmundson, 1983"
 26387-47-3, , C,8.13,PE,"1,3,2-Diazaphosphorinane, 2-sulfide, 2-phenoxy-","Edmundson, 1983"
 68580-04-1,, C,9.10 ¡À 0.03,PI,"2-Propanone, trimer","Trott, Blais, et al., 1978"
 502-56-7,LLK, C,9.07,EI,5-Nonanone,"Holmes, Fingas, et al., 1981"
 821-55-6,LLK, C,9.16,EI,2-Nonanone,"Holmes, Fingas, et al., 1981"
 71328-66-0,Vertical value, C,7.56,PE,"Phosphine imide, N-(1,1-dimethylethyl)-p,p,p-trimethyl-","Starzewski and Dieck, 1979"
 50599-43-4,Vertical value; , C,8.02,PE,Methyl-triethylhydrazine,"Nelsen, 1984"
 52598-10-4,LBLHLM, C,6.63 ¡À 0.05,EQ,Butyltrimethylhydrazine,"Mautner(Meot-Ner), Nelsen, et al., 1984"
 25811-66-9,Vertical value, C,7.6 ¡À 0.2,PE,"Diazene, (1,1-dimethylethyl)(trimethylsilyl)-","Bock, Wittel, et al., 1976"