CAS,Comment,Formula,IE,Method,Name,Refer
 11077-59-1,LLK, C,8.2 ¡À 0.2,EI,"tris(¦Ç5-2,4-cyclopentadien-1-yl)praseodymium","Gaivoronskii, Gavrishchuk, et al., 1978"
 1273-98-9,LLK, C,8.0 ¡À 0.2,EI,"tris(¦Ç5-2,4-cyclopentadien-1-yl)neodymium","Gaivoronskii, Gavrishchuk, et al., 1978"
 1272-22-6,, C,7.5 ¡À 0.1,EI,"tris(¦Ç5-cyclopenta-2,4-dien-1-yl)holmium","Muller, 1969"
 1272-24-8,, C,7.4 ¡À 0.1,EI,"tris(¦Ç5-cyclopenta-2,4-dien-1-yl)lutetium","Muller, 1969"
 1272-23-7,LLK, C,7.9 ¡À 0.3,EI,"tris(¦Ç5-cyclopenta-2,4-dien-1-yl)lanthanum","Gaivoronskii, Gavrishchuk, et al., 1978"
 70239-57-5,Vertical value, C,7.94,PE,"Benzo[g]pyrido[2,3d]pyrimidin-2,4-dione,3,7,8,10-tetramethyl-","Eweg, Muller, et al., 1980"
 105267-82-1,Vertical value, C,7.4,PE,"Cobalt, [(1,2,3,4-¦Ç)-2,4-bis(1,1-dimethylethyl)-1,3-diphosphete](¦Ç5-2,4-cyclopentadien-1-yl)-","Gleiter, Hyla-Kryspin, et al., 1992"
 16827-63-7,Vertical value, C,8.85 ¡À 0.07,PE,"tris(1,1,1,5,5,5-hexafluoropentane-2,4-dionato-O,O')ruthenium","Evans, Hamnett, et al., 1972"
 18990-42-6,LLK, C,9.43 ¡À 0.05,EI,"Scandium,tris(1,1,1,5,5,5-hexafluoro-2,4-pentanedionato-o,o')-","Westmore, Reimer, et al., 1981"
 22854-59-7,Vertical value; , C,7.98,PE,"Titanium, tris(1,1,1,5,5,5-hexafluoro-2,4-pentanedionato-o,o')-","Evans, Hamnett, et al., 1972"
 15695-77-9,Vertical value; , C,8.68,PE,"Vanadium,tris(1,1,1,5,5,5-hexafluoro-2,4-pentanedionato-o,o')-,(oc-6-11)-","Evans, Hamnett, et al., 1972"
 14038-71-2,, C,10.15 ¡À 0.12,EI,"Tris(1,1,1,5,5,5-hexafluoro-2,4-pentanedionato)rhodium","Schildcrout, Pearson, et al., 1968"
 17786-67-3,LLK, C,9.7 ¡À 0.2,PE,"1,1,1,5,5,5-Hexafluoroacetylacetone iron(III) salt","Westmore, Reimer, et al., 1981"
 69561-88-2, , C,7.4,PE,"Stibine, diphenyl(trimethylsilyl)-","Distefano, Zanathy, et al., 1988"
 17425-91-1, , C,7,PE,"Silanamine, 1,1,1-trimethyl-N,N-diphenyl-","Distefano, Zanathy, et al., 1988"
 36530-12-8,, C,7.97 ¡À 0.03,EI,"Bis(3-nitro-2,4-pentanedionato-o","Bursey and Rogerson, 1971"
 15306-18-0,LLK, C,9.6 ¡À 0.2,EI,"Aluminum, tris(1,1,1,5,5,5-hexafluoro-2,4-pentanedionato-o,o')-","Westmore, Reimer, et al., 1981"
 16702-37-7,RDSH, C,10.12 ¡À 0.15,EI,"Cobalt,tris(1,1,1,5,5,5-hexafluoro-2,4-pentanedionato-o,o')-,(oc-6-11)-","Schildcrout, Pearson, et al., 1968"
 14592-80-4,LLK, C,9.3 ¡À 0.2,PE,"Chromium, tris(1,1,1,5,5,5-hexafluoro-2,4-pentanedionato-o,o')-","Westmore, Reimer, et al., 1981"
 17154-34-6, , C,7.3,PE,Diphenyl(trimethylsilyl)phosphine,"Distefano, Zanathy, et al., 1988"
 49716-47-4,, C,7.0 ¡À 0.1,EI,Cyclooctenecyclopentadienylmanganese dicarbonyl,"Muller and Herberhold, 1968"
 92468-04-7, , C,6.7,PE,"Cobalt, ¦Ç","Wakatuski, Yamazaki, et al., 1987"
 38003-95-1, , C,7.4,PE,"Arsine, diphenyl(trimethylsilyl)-","Distefano, Zanathy, et al., 1988"
 77847-31-5,Vertical value, C,5.5,PE,"Niobium, bis(¦Ç","Van Dam, Terpstra, et al., 1981"
 522-33-8, , C,7.6,PE,"Dodecahydro-1H,6H,11H-tripyrido[1,2-a:1',2'-c:1"",2""-e][1,3,5]triazine","Beck, Hunig, et al., 1986"
 21679-46-9,LLK, C,7.56 ¡À 0.05,EI,Cobalt tris(acetylacetonate),"Westmore, Reimer, et al., 1981"
 64466-15-5,Vertical value, C,7.5,PE,"Rhodium, 2,2,6,6-tetramethylheptan-3,5-dionato-O,O')-bis¦Ç","Van Dam, Terpstra, et al., 1980"
 74684-29-0,Vertical value, C,7.32,PE,"Iridium, 2,2,6,6-tetramethylheptan-3,5-dionato-","Van Dam, Terpstra, et al., 1980"
 55019-74-4,Vertical value, C,7.26,PE,"Pentaphospholane,pentapropyl-","Cowley, Dewar, et al., 1978"
 13720-02-0,, C,7.85,RPD,3-Methyl-d3-phenanthrene,"Nounou, 1968"
 73682-23-2,Vertical value, C,7.55,PE,"Tungsten, pentacarbonyl[1-ethoxy-2,2-bis(trimethylsilyl)ethylidene]-","Lappert, McCabe, et al., 1980"
 128-37-0,Vertical value, C,7.8,PE,Butylated Hydroxytoluene,"Cetinkaya, Lappert, et al., 1983"
 38446-40-1,, C,7.95,CTS,"Disilane,pentamethyl-1-naphthalenyl-","Pitt, Carey, et al., 1972"
 72194-24-2,, C,7.85,PI,"4-tert-Butyl-1(1-thioxo-2,2-dimethyl-propyl)-benzene","Takhistov, Misharev, et al., 1995"
 75751-20-1,Vertical value, C,6.35,PE,"1',3',5',6'-Tetramethylspiro[cyclopentane-1,2'-(2,3-dihydrobenzimidazole)]","Gleiter and Uschmann, 1986"
 84477-43-0, , C,7.4,PE,"2,7-Di-tert-butylthiepin,4-methyl-","Gleiter, Krennrich, et al., 1985"
 23889-83-0, , C,7.5,PE,"3,3a,7,7a,11,11a-Hexahydro-3,3,7,7,11,11-hexamethyl-tripyrazolo[1,5-a:1',5'-c:1"",5""-e][1,3,5]triazine","Beck, Hunig, et al., 1986"
 28834-17-5,Vertical value, C,9.26,PE,"Bicyclo[7.2.0]undecane,6,10,10-trimethyl-2-methylene-5-nitro-6-nitroso-","Egdell, Green, et al., 1975"
 85952-93-8, , C,7.2 ¡À 0.1,PE,"2,8,9-Trioxa-5-aza-1-silabicyclo[3.3.3]undecane-1-propanamine,N-phenyl-","Peel and Dianxum, 1988"
 26205-36-7,, C,7.54 ¡À 0.01,EI,"Silane,1H-indene-1,2-diylbis[trimethyl-","Rakita, Hoffman, et al., 1973"
 6753-98-6,Vertical value, C,9.54,PE,Humulene,"Martin, Heller, et al., 1980"
 73382-48-6,Vertical value, C,7.57,PE,"Chromium, pentacarbonyl[1-ethoxy-2,2-bis(trimethylsilyl)ethylidene]-","Lappert, McCabe, et al., 1980"
 73382-49-7,Vertical value, C,7.27,PE,"Molybdenum, pentacarbonyl[1-ethoxy-2,2-bis(trimethylsilyl)ethylidene]-","Lappert, McCabe, et al., 1980"
 717-74-8,LBLHLM, C,8.24,PE,"Benzene, 1,3,5-tris(1-methylethyl)-","Howell, Goncalves, et al., 1984"
 51898-92-1,Vertical value, C,8.5,PE,"Tetracyclo[6.1.0.0(2,4).0(5,7)]nonane,3,3,6,6,9,9-hexamethyl-(1¦Á,2¦Á,4¦Á,5¦Â,7¦Â,8¦Á)-","Spanget-Larsen, Gleiter, et al., 1979"
 76710-52-6,Vertical value, C,8.34,PE,"N-Methyldiethanolamine, 2TMS derivative","Brodskaya, Voronkov, et al., 1987"
 98705-35-2, , C,7.4,PE,"2,7-Di-tert-butylthiepin,4-methyl-2,3-dihydro-","Gleiter, Krennrich, et al., 1985"
 34458-54-3,, C,8.80 ¡À 0.15,EI,(Z)-Cyclopentadecene,"Remane, Graefe, et al., 1972"
 2146-35-2,, C,8.83 ¡À 0.15,EI,Cyclopentadecene(E),"Remane, Graefe, et al., 1972"
 24850-33-7,Vertical value, C,8.4,PE,Allyltributyltin,"Schweig, Weidner, et al., 1973"
 77614-71-2,Vertical value, C,7.5,PE,"3-Diphosphaborinamine, N-cyclohexyl-1,2-bis(1,1-dimethylethyl)-N-methyl-","Gleiter, Bohm, et al., 1981"
 54854-43-2, , C,6.8,PE,"Iron, (4,4,5,5-tetramethyl-1,3-dioxolan-2-ylidene)-tetracarbonyl-","Bohm, Daub, et al., 1980"
 37685-50-0, , C,6.5,PE,"Rhodium, (¦Ç","Green, Powell, et al., 1984"
 53666-32-3,, C,6.3 ¡À 0.1,EI,"Methanimidamide,N'-[3-(dimethylamino)phenyl]-N,N-dimethyl-","Kuschel and Grutzmacher, 1974"
 79730-77-1, , C,6.7,PE,"Manganese, dicarbonyl(¦Ç","Calabro and Lichtenberger, 1981"
 51-52-5,, C,8.07 ¡À 0.08,CTS,Propylthiouracil,"Fulton and Lyons, 1968"
 53666-31-2,, C,6.1 ¡À 0.1,EI,"Formamidine, N,N-dimethyl-N'-((4-dimethylamino)phenyl)-","Kuschel and Grutzmacher, 1974"
 54-04-6,Vertical value, C,8.18 ¡À 0.24,PE,"Benzeneethanamine, 3,4,5-trimethoxy-","Domelsmith, Munchausen, et al., 1977"
 52850-81-4,Vertical value, C,7.91 ¡À 0.06,PE,"Benzeneethanamine,2,4-dimethoxy-¦Á-methyl-(.+/-.)-","Domelsmith and Houk, 1978"
 13641-74-2,LLK, C,7.1,PE,"Benzeneethanamine, 2,5-dimethoxy-¦Á-methyl-","Domelsmith, Eaton, et al., 1981"
 23690-13-3,LLK, C,7.4,PE,"2,4-Dimethoxyamphetamine","Domelsmith, Eaton, et al., 1981"
 120-26-3,Vertical value, C,8.03 ¡À 0.06,PE,"Benzenethanamine, 3,4-dimethoxy-¦Á-methyl-","Domelsmith and Houk, 1978"
 23690-14-4,LLK, C,8.18 ¡À 0.06,PE,"2,6-Dimethoxyamphetamine","Domelsmith, Eaton, et al., 1981"
 15402-81-0,Vertical value; , C,8.3,PE,"2,3-Dimethoxyamphetamine","Domelsmith, Eaton, et al., 1981"
 613-48-9,LBLHLM, C,6.84,EQ,"Benzenamine, N,N-diethyl-4-methyl-","Lias, Jackson, et al., 1985"
 91-67-8,LBLHLM, C,6.9,EQ,"Benzenamine, N,N-diethyl-3-methyl-","Lias, Jackson, et al., 1985"
 13021-15-3,LLK, C,7.24,PE,"N,N,2,4,6-Pentamethylbenzenamine","Cowling and Johnstone, 1973"
 2655-27-8,, C,7.5,CTS,N-amyl aniline,"Briegleb and Czekalla, 1959"
 85229-65-8, , C,7.8,PE,Tricyclo[4.3.1.1,"Tombo, Ammann, et al., 1983"
 71017-51-1,Vertical value, C,7.06,PE,"2-Azabicyclo[3.2.1]octa-3,6-diene,2-(1,1-dimethylethyl)-","Barraclough, Bilgic, et al., 1979"
 63608-69-5,Vertical value, C,8.52 ¡À 0.05,PE,"1,4-Methanonaphthalene,1,4-dihydro-5-iodo-","Santiago, McAlduff, et al., 1978"
 63509-78-4,Vertical value, C,8.29 ¡À 0.05,PE,"1,4-Methanonaphthalene,1,4-dihydro-6-iodo-","Santiago, McAlduff, et al., 1978"
 4139-78-0,, C,7.41,CTS,"N,N-Dimethyl-4-isopropylaniline","Farrell and Newton, 1965"
 20637-05-2,, C,8.8 ¡À 0.2,EI,"Butyric acid, 4-(p-fluorophenyl)-, methyl ester","Howe, Williams, et al., 1969"
 143268-64-8,Vertical value, C,6.76,PE,"Benzothiazoline, 2-isopropylidene-3-methyl-","Quast, Ach, et al., 1993"
 4363-25-1,LLK, C,7.85 ¡À 0.02,PE,"2H-1,4-Ethanoquinoline, 3,4-dihydro-","Maier and Turner, 1973"
 20651-74-5,LLK, C,9.8 ¡À 0.1,EI,3-Butylbenzonitrile,"Lightner, Majeti, et al., 1972"
 20651-73-4,LLK, C,10.1 ¡À 0.1,EI,4-Butylbenzonitrile,"Lightner, Majeti, et al., 1972"
 20637-02-9,, C,9.3 ¡À 0.2,EI,"Benzenebutanoic acid, 4-nitro-, methyl ester","Howe, Williams, et al., 1969"
 4210-32-6,LBLHLM, C,9.11 ¡À 0.02,EI,4-t-Butylbenzonitrile,"Orlov, Misharev, et al., 1986"
 143268-59-1,Vertical value, C,6.85,PE,"Benzoxazoline,2-isopropylidene-3-methyl-","Quast, Ach, et al., 1993"
 51944-67-3,, C,8.6 ¡À 0.1,EI,"2-Butenamide,N-(phenylmethyl)-","Mathar, Bohlmann, et al., 1973"
 55257-99-3,Vertical value, C,8.33 ¡À 0.05,PE,"Naphthalen-1,4-imine, 1,2,3,4-tetrahydro-9-methyl-","Morishima, Yoshikawa, et al., 1975"
 68003-68-9,Vertical value, C,8.05,PE,"2-Propen-1-amine,2-methyl-N-(phenylmethylene)-(E)-","Worley, Taylor, et al., 1978"
 58304-70-4,, C,8.4 ¡À 0.2,EI,3-(4-Chlorophenyl)butanoic acid methyl ester,"Howe, Williams, et al., 1969"
 41061-97-6,Vertical value, C,7.84,PE,"Imidazolidine,2-(2,6-dichlorophenylimino)-1,3-dimethyl-","de Jong and Van Dam, 1980"
 81547-13-9,, C,8.47 ¡À 0.10,EI,"as-Triazino[6,5-c]quinoline, 2-methylamino-","Vekey, Tamas, et al., 1985"
 20253-17-2,Vertical value, C,7.46,PE,"Stannane, [[(diethylamino)thioxomethyl]thio] triethyl-","Cauletti, Nicotra, et al., 1980"
 1710-98-1,LL, C,9.14,PI,"Benzoyl chloride, 4-(1,1-dimethylethyl)-","Takhistov, Misharev, et al., 1995"
 65338-52-5,Vertical value, C,7.52,PE,"Chromium, pentacarbonyl-(triethenylphosphine)-","Weiner and Lattman, 1978"
 63340-06-7,Vertical value, C,8.64,PE,"Benzene,1-chloro-4-(1-ethylcyclopropyl)-","Prins, Verhoeven, et al., 1977"
 58653-71-7,Vertical value, C,8.62 ¡À 0.05,PE,"1,4-Methanonaphthalene,6-fluoro-1,4-dihydro-","Santiago, McAlduff, et al., 1978"
 76293-37-3,LLK, C,9.0 ¡À 0.05,EI,4-(2-Trifluoromethylphenyl)but-3-en-2-one,"Schaldach, Grotemeyer, et al., 1981"
 15191-68-1,, C,8.23,EI,"2,4-Butanedione, 1,1,1-trifluoro-4-(4-methoxyphenyl)-","Orlov, Rashkes, et al., 1988"
 80992-93-4,LLK, C,9.1 ¡À 0.05,EI,"3-Buten-2-one, 4-(4-trifluoromethylphenyl)-","Schaldach, Grotemeyer, et al., 1981"
 80992-92-3,LLK, C,9.1 ¡À 0.05,EI,"3-Buten-2-one, 4-(3-trifluoromethylphenyl)-","Schaldach, Grotemeyer, et al., 1981"
 95642-52-7,Vertical value, C,8.5,PE,"1,3-Thiazine-6-one-4-ol, 2-(4-methoxyphenyl)-","Yakovlev, Mironova, et al., 1987"
 42810-33-3,Vertical value, C,8.96 ¡À 0.05,PE,"1,4-Methanonaphthalene,1,4-dihydro-6-nitro-","Santiago, McAlduff, et al., 1978"
 58673-43-1,Vertical value, C,8.87 ¡À 0.05,PE,"1,4-Methanonaphthalene,1,4-dihydro-5-nitro-","Santiago, McAlduff, et al., 1978"
 71671-89-1,LBLHLM, C,8.10 ¡À 0.03,PE,"11-Fluoro-1,6-methano[10]annulene","Andrea, Cerfontain, et al., 1984"
 7419-61-6,, C,7.56 ¡À 0.05,EI,Naphth-2-ylmethyl,"Harrison and Lossing, 1960"
 22672-88-4,, C,7.01,EI,1-Diethylaminoethylidenecrhomium pentacarbonyl,"Muller and Connor, 1969"
 38959-22-7, , C,6.56,PE,"Cobalt, [(1,2,3,4-¦Ç)-1,3-cyclohexadiene](¦Ç5-2,4-cyclopentadien-1-yl)-","Green, Powell, et al., 1984"
 7419-60-5,RDSH, C,7.4 ¡À 0.1,EI,1-Naphthylmethyl radical,"Harrison and Lossing, 1960"
 36534-25-5,, C,6.6 ¡À 0.1,EI,"Cobalt,(¦Ç","Herberich, Greiss, et al., 1971"
 14634-68-5,, C,8.61 ¡À 0.05,EI,"Scandium, tris(1,1,1-trifluoro-2,4-pentanedionato-o,o'-)","Westmore, Reimer, et al., 1981"
 14526-22-8,LLK, C,8.9 ¡À 0.2,PE,"Iron, tris(1,1,1-trifluoro-2,4-pentanedionato)-","Westmore, Reimer, et al., 1981"
 2570-01-6,Vertical value, C,11.25,PE,"2-Cyclopropen-1-thione,2,3-diphenyl-","Muller, Schweig, et al., 1978"
 61346-81-4,Vertical value, C,8.66 ¡À 0.05,PE,"1,4-Methanonaphthalene,5-fluoro-1,4-dihydro-","Santiago, McAlduff, et al., 1978"
 78239-34-6, , C,7.79,PE,"Cyclopropa[b]anthracene, 1,1-difluoro-","Lecoultre, Heilbronner, et al., 1988"
 102-04-5,, C,8.5 ¡À 0.1,PI,"2-Propanone, 1,3-diphenyl-","Polevoi, Matyuk, et al., 1987"
 56359-31-0,, C,7.29 ¡À 0.05,EI,"Isoquinolinium,4-hydroxy-2-(4-nitrophenyl)-hydroxide,inner salt","Hansen and Undheim, 1975"
 55507-33-0,, C,8.71 ¡À 0.05,EI,"Indeno[1,2-b]azirin-6(1H)-one,1a,6a-dihydro-1-(4-nitrophenyl)-","Hansen and Undheim, 1975"
 53556-74-4,, C,7.85 ¡À 0.05,EI,"Cobalt,hexacarbonyl[¦Ì-[(1,2-¦Ç:1,2-¦Ç)-1-propynylbenzene]]di-,(co-co)","Gambino, Vaglio, et al., 1974"
 57603-41-5, , C,6.6,PE,"Manganese, tetracarbonylbis(¦Ç5-2,4-cyclopentadien-1-yl)-¦Ì-methylenedi(mn-mn)","Granozzi, Tondello, et al., 1981"
 287-03-6, , C,7.39,PE,Cyclopropa[b]anthracene,"Lecoultre, Heilbronner, et al., 1988"
 120-46-7,LLK, C,8.3,PE,Dibenzoylmethane,"McAlduff and Bunbury, 1979"
 37608-29-0, , C,11.41,EI,"1H-Cyclopropa[l]phenanthrene,1,1-dichloro-1a,9b-dihydro-","Lossing, 1972"
 2431-00-7,, C,9.05 ¡À 0.10,EI,"Ethanedione, (4-methylphenyl)phenyl-","Scheppele, Mitchum, et al., 1973"
 5821-57-8,Vertical value, C,9.22,PE,"1,4-Methanoanthracene-9,10-dione, 1,2,3,4-tetrahydro-","Paquette, Bellamy, et al., 1980"
 68217-42-5,Vertical value, C,8.06 ¡À 0.04,PE,"1H-Phenalen-1-one,9-ethoxy-","Carnovale, Gan, et al., 1979"
 32745-55-4,Vertical value, C,9,PE,"1,4-Methanoanthracene-9,10-dione, 1,4-dihydro-","Paquette, Bellamy, et al., 1980"
 12130-14-2, , C,7,PE,¦Ç,"Chizhov, Timoshenko, et al., 1986"
 12111-60-3,, C,7.27,EI,Biphenylchromium tricarbonyl,"Muller, 1969"
 2395-96-2,Vertical value, C,7.21 ¡À 0.03,PE,"Anthracene, 9-methoxy-","Klasinc, Kovac, et al., 1978"
 12308-30-4,, C,7.26 ¡À 0.02,PE,¦Ç,"Lichtenberger, Renshaw, et al., 1993"
 32555-96-7,, C,7.92 ¡À 0.04,PI,4-Stilbene carboxaldehyde,"Potapov, Kardash, et al., 1972"
 4444-43-3,Vertical value, C,8.5 ¡À 0.1,PE,"5H-Dibenzo[a,c]cyclohepten-5-one","Allan, Heilbronner, et al., 1975"
 886-38-4,Vertical value; , C,10.56,PE,"2-Cyclopropen-1-one, 2,3-diphenyl-","Muller, Schweig, et al., 1978"
 2222-33-5,Vertical value, C,8.06 ¡À 0.03,PE,"5H-Dibenzo[a,d]cyclohepten-5-one","Allan, Heilbronner, et al., 1975"
 642-31-9,LBLHLM, C,7.67,PE,9-Anthracenecarboxaldehyde,"Klasinc, Kovac, et al., 1983"
 131447-42-2,Vertical value, C,7.44,PE,"9-Chloro-2,3,6,7-tetrahydro-1H,5H,11H-[1]benzopyrano-[6,7,8-cy]quinolizin-11-one","Redchenko, Safronov, et al., 1992"
 832-69-9,RDSH, C,7.70 ¡À 0.03,EI,"Phenanthrene, 1-methyl-","Nounou, 1966"
 16827-64-8,, C,8.3 ¡À 0.2,EI,"Cobalt, tris(1,1,1-trifluoro-2,4-pentanedionato-o,o'-)","Westmore, Reimer, et al., 1981"
 14592-89-3,LLK, C,8.2 ¡À 0.2,PE,"Chromium, tris(1,1,1-trifluoro-2,4-pentanedionato-O,O')-","Westmore, Reimer, et al., 1981"
 2531-84-2,RDSH, C,7.9 ¡À 0.04,EI,"Phenanthrene, 2-methyl-","Bonnier, Gelus, et al., 1965"
 832-71-3,RDSH, C,7.9,EI,"Phenanthrene, 3-methyl-","Nounou, 1968"
 14354-59-7,LLK, C,8.7 ¡À 0.2,PE,"Aluminum, tris(1,1,1-trifluoro-2,4-pentanedionato-O,O')-","Westmore, Reimer, et al., 1981"
 613-12-7,LLK, C,7.37 ¡À 0.05,EQ,"Anthracene, 2-methyl-","Mautner(Meot-Ner), 1980"
 73045-26-8,Vertical value, C,8.05,PE,"Bicyclo[2.2.1]hepta-2,5-diene,7,7'-methanediylidenebis-","Kovac, Heilbronner, et al., 1979"
 832-64-4,LLK, C,7.1 ¡À 0.1,EI,"Phenanthrene, 4-methyl-","Dougherty, Bertorello, et al., 1971"
 883-20-5,RDSH, C,7.46 ¡À 0.03,EI,"Phenanthrene, 9-methyl-","Bonnier, Gelus, et al., 1965"
 949-41-7,Vertical value, C,7.77,PE,"1H-Cyclopropa[l]phenanthrene,1a,9b-dihydro-","Shudo, Kobayashi, et al., 1977"
 256-81-5, , C,7.6,PE,"5H-Dibenzo[a,d]cycloheptene","Gusten, Klasinc, et al., 1976"
 779-02-2,LLK, C,7.31 ¡À 0.05,EQ,"Anthracene, 9-methyl-","Mautner(Meot-Ner), 1980"
 73050-57-4,Vertical value, C,7.8,PE,"Tetracyclo[3.2.0.0<sup>2,7</sup>.0<sup>4,6</sup>]heptane,3,3'-methanetetrabis-","Kovac, Heilbronner, et al., 1979"
 24168-52-3,LLK, C,7.45,PE,"Benzene,1,1'-(1-cyclopropene-1,2-diyl)bis-","Muller, Schweig, et al., 1978"
 833-81-8,Vertical value; , C,8.10 ¡À 0.05,PE,"Stilbene, ¦Á-methyl-, (E)-","Distefano, Mazzucato, et al., 1975"
 19019-10-4,, C,7.7 ¡À 0.1,EI,"9H-Thioxanthene,9,9-dimethyl-","Innorta, Torroni, et al., 1977"
 3412-44-0,, C,8.3,EI,"1,3-Diphenylpropene","Johnstone and Millard, 1966"
 1138-47-2,LLK, C,8.05,PE,"(trans)-1,1'-(1,2-cyclopropanediyl)bisbenzene","Arnold and Wong, 1979"
 1138-48-3,LLK, C,8.2,PE,"(cis)-1,1'-(1,2-cyclopropanediyl)bisbenzene","Arnold and Wong, 1979"
 73050-58-5,LLK, C,7.6,PE,"(Dispiro[tetracyclo[3.2.0.0<sup>2,7</sup>.0<sup>4,6</sup>]heptane-3,1'-cyclopropane-2',3''-tetracyclo[3.2.0.0<sup>2,7</sup>.0<sup>4,6</sup>]heptane)","Kovac, Heilbronner, et al., 1979"
 115752-66-4, , C,7.9,PE,"5,6-Benzotetracyclo[6.3.0.0","Fessner, Sedelmeier, et al., 1987"
 4569-45-3,Vertical value, C,7.8,PE,"9H-Fluorene, 9,9-dimethyl-","Schweig, Weidner, et al., 1973"
 67618-28-4,Vertical value, C,6.98 ¡À 0.04,PE,"Phenalene,9-methylamino-1-methylimino-","Carnovale, Gan, et al., 1980"
 73045-27-9,LLK, C,8,PE,"(Dispiro[bicyclo[2.2.1]hepta-2,5-diene-7,1'- cyclopropane-2',7''-bicyclo[2.2.1]hepta[2,5]diene])","Kovac, Heilbronner, et al., 1979"
 36530-13-9,, C,8.39 ¡À 0.04,EI,"Tris(3-nitro-2,4-pentanedionato-o","Bursey and Rogerson, 1971"
 60165-04-0,Vertical value, C,8.51,PE,"Benzenamine,2,6-dimethyl-4-nitro-N-(phenylmethylene)-","Akaba, Tokumaru, et al., 1980"
 76193-89-0,Vertical value, C,~8.49,PE,"Benzenamine, 2-methyl-N-[(3-methylphenyl)methylene]-4-nitro-","Akaba, Tokumaru, et al., 1980"
 13938-89-1,, C,8.63 ¡À 0.05,EI,"Tris(3-nitro-2,4-pentanedionato)chromium","Bancroft, Reichert, et al., 1969"
 15169-09-2,RDSH, C,8.03 ¡À 0.05,EI,"Chromium, tris(3-iodopentan-2,4-dionato)-","Bancroft, Reichert, et al., 1969"
 40024-76-8,LBLHLM, C,8.15,PE,"5,12-Methano-6H-cyclododeca[c]thiophen-14-one, 6,7,8,9,10,11-hexahydro-","Gleiter, Bischof, et al., 1984"
 15218-44-7,Vertical value, C,7.58,PE,"Cobalt, tris(3-bromo-2,4-pentanedionato-o,o')-","Brittain, Horozoglu, et al., 1979"
 15025-13-5,RDSH, C,8.05 ¡À 0.05,EI,"Chromium, tris(3-bromopentan-2,4-dionato)-","Bancroft, Reichert, et al., 1969"
 15169-15-0,Vertical value, C,7.94,PE,"Iron, tris(3-bromopentan-2,4-dionato)-","Akopyan, Vovna, et al., 1990"
 12088-11-8,LLK, C,6.4 ¡À 0.1,EI,"Chromium, tricarbonyl[(1,2,3,4,5,6-¦Ç)-hexamethylbenzene]-","Gilbert, Leach, et al., 1973"
 14453-97-5,Vertical value, C,7,PE,"Benzo[g]pteridine-2,4(1H,3H)-dione,5,10-dihydro-1,3,7,8,10-pentamethyl-","Eweg, Muller, et al., 1980"
 59950-10-6,, C,8.21 ¡À 0.05,EI,"Benzene,[(3-phenoxypropyl)thio]-","Schwarz, Petersen, et al., 1977"
 13963-55-8,RDSH, C,8.16 ¡À 0.05,EI,"Chromium, tris(3-chloropentan-2,4-dionato)-","Bancroft, Reichert, et al., 1969"
 15169-14-9,, C,7.9,PE,"Iron, tris(3-chloropentan-2,4-dionato)-","Akopyan, Vovna, et al., 1990"
 14566-97-3,Vertical value, C,7.59,PE,"Cobalt,tris(3-chloro-2,4-pentanedionato-0,0')-(oc-6-11)-","Brittain, Horozoglu, et al., 1979"
 14310-21-5,, C,8. ¡À 10.,EI,"Benzene, 1-methoxy-4-(2-phenylethyl)-","McLafferty, Wachs, et al., 1970"
 726-44-3,, C,8.46 ¡À 0.05,EI,"1,3-Diphenoxypropane","Schwarz, Petersen, et al., 1977"
 98150-61-9, , C,6.3,PE,"Ferrocene, 1,1'-[1,5-pentanediylbis(thio)]-","Vondrak and Sato, 1989"
 15169-16-1,Vertical value, C,8.25,PE,"Iron, tris(3-iodopentan-2,4-dionato)-","Akopyan, Vovna, et al., 1990"
 72036-52-3,Vertical value; , C,8.59,PE,"5,5-Dimethyl-3-(4-methylphenyl)-cyclohex-2-en-1-one","Pfister-Guillouzo, Geribaldi, et al., 1982"
 63378-86-9,LLK, C,7.50 ¡À 0.05,PE,"1,2-Diphenylpyrazolidine","Rademacher, Bass, et al., 1977"
 114171-77-6,Vertical value, C,7.75,PE,"Coumarin, 3-thiocyano-4-methyl-7-(N,N-diethylamino)-","Redchenko, Safronov, et al., 1992"
 29339-44-4,Vertical value; , C,8.26,PE,"3-(4-Methoxyphenyl)-5,5-dimethyl-cyclohex-2-en-1-one","Pfister-Guillouzo, Geribaldi, et al., 1982"