CAS,Comment,Formula,IE,Method,Name,Refer
 110-95-2,LLK, C,7.6,PE,"1,3-Propanediamine, N,N,N',N'-tetramethyl-","Livant, Roberts, et al., 1981"
 60678-73-1,LBLHLM, C,7.07 ¡À 0.05,EQ,Tert-butyl trimethylhydrazine,"Rumack, 1986"
 68970-04-7,Vertical value, C,8.35,PE,"Hydrazine, isobutyl trimethyl-","Nelsen, 1984"
 701-56-4,LLK, C,6.7 ¡À 0.1,PE,"Benzenamine, 4-methoxy-N,N-dimethyl-","Egdell, Green, et al., 1975"
 700-75-4,, C,7.59 ¡À 0.02,EI,"Benzenamine, 2-methoxy-N,N-dimethyl-","Hvistendahl and Undheim, 1972"
 55-81-2,Vertical value, C,8.16 ¡À 0.08,PE,"Benzeneethanamine, 4-methoxy-","Domelsmith, Munchausen, et al., 1977"
 2199-44-2,Vertical value; , C,7.91,PE,"1H-Pyrrole-2-carboxylic acid, 3,5-dimethyl-, ethyl ester","Cauletti, Giancaspro, et al., 1981"
 2199-51-1,Vertical value; , C,7.95,PE,"1H-Pyrrole-3-carboxylic acid, 2,4-dimethyl-, ethyl ester","Cauletti, Giancaspro, et al., 1981"
 62244-50-2,, C,9.44,EI,"Silane,methoxydimethyl(4-nitrophenyl)-","Gey and Dube, 1976"
 56125-95-2,Vertical value, C,8.6,PE,2-Azabicyclo[3.2.1]oct-6-ene-2-carboxylic acid methyl ester,"Barraclough, Bilgic, et al., 1979"
 555-64-6,Vertical value, C,8.18 ¡À 0.06,PE,"1,2-Benzenediol,4-(2-aminopropyl)-","Domelsmith and Houk, 1978"
 39998-23-7,, C,6.94 ¡À 0.02,EI,"3-Pyridineacetic acid, 1,4-dihydro-1-methyl-, methyl ester","Hvistendahl and Undheim, 1972"
 4405-33-8,Vertical value, C,9.8,PE,"Silane,trimethyl(4-nitrophenyl)-","Limouzin and Maire, 1976"
 56125-94-1,Vertical value, C,8.03,PE,2-Azabicyclo[3.2.1]oct-3-ene-2-carboxylic acid methyl ester,"Barraclough, Bilgic, et al., 1979"
 50838-23-8,, C,8.6,EI,"Pyridine,1,2,3,4-tetrahydro-1-(1-oxo-2-butenyl)-,(E)","Schwarz and Bohlmann, 1973"
 31061-58-2,, C,~6.8,EI,"Benzenaminium, 2-hydroxy-N,N,N-trimethyl-, hydroxide, inner salt","Hvistendahl and Undheim, 1972"
 23569-17-7,LLK, C,7.8,PE,"4-t-Butyl pyridine, 1-oxide","Weiner and Lattman, 1974"
 42949-24-6,Vertical value, C,8.21 ¡À 0.02,PE,1-Azatricyclo[3.3.1.1,"Worrell, Verhoeven, et al., 1974"
 300-62-9,Vertical value; , C,8.99 ¡À 0.06,PE,Amphetamine,"Domelsmith and Houk, 1978"
 121-72-2,LBLHLM, C,7.02,EQ,"Benzenamine, N,N,3-trimethyl-","Lias, Jackson, et al., 1985"
 609-72-3,LLK, C,7.40 ¡À 0.02,PE,"Benzenamine, N,N,2-trimethyl-","Maier and Turner, 1973"
 99-97-8,LBLHLM, C,6.93,EQ,"Benzenamine, N,N,4-trimethyl-","Lias, Jackson, et al., 1985"
 3978-81-2,Vertical value; , C,9.30 ¡À 0.05,PE,"Pyridine, 4-(1,1-dimethylethyl)-","Heilbronner, Hornung, et al., 1972"
 2696-84-6,, C,7.41,PE,"Benzenamine, 4-propyl-","Song, Pauls, et al., 1991"
 103-83-3,LLK, C,7.69 ¡À 0.03,PI,"Benzenemethanamine, N,N-dimethyl-","Loguinov, Takhistov, et al., 1981"
 88-05-1,LLK, C,7.15,PE,"Benzenamine, 2,4,6-trimethyl-","Cowling and Johnstone, 1973"
 2038-57-5,Vertical value; , C,8.89 ¡À 0.12,PE,Benzenepropanamine,"Domelsmith, Munchausen, et al., 1977"
 613-97-8,RDSH, C,7.37,CTS,"Benzenamine, N-ethyl-N-methyl-","Farrell and Newton, 1965"
 589-08-2,LLK, C,8.4,PE,"Benzeneethanamine, N-methyl-","Domelsmith, Munchausen, et al., 1977"
 99-88-7,, C,7.7 ¡À 0.1,CTS,Cumidine,"Farrell and Newton, 1966"
 622-80-0,, C,7.54,CTS,"Benzenamine, N-propyl-","Farrell and Newton, 1965"
 768-52-5,, C,7.5,CTS,"Benzenamine, N-(1-methylethyl)-","Briegleb and Czekalla, 1959"
 52547-86-1,Vertical value, C,8.30 ¡À 0.015,PE,"1-Azabicyclo[2.2.2]octane,4-ethynyl-","Bieri and Heilbronner, 1974"
 54290-50-5,Vertical value, C,8.14,PE,"3H-1,2-Dithiole-3-thione,5-(4-fluorophenyl)-","Gonbeau, Guimon, et al., 1975"
 82407-81-6, , C,7,PE,"1,6-Diazabicyclo[4.3.2]undecane","Honegger, Yang, et al., 1985"
 828-26-2,Vertical value, C,7.95 ¡À 0.05,PE,"1,3,5-Trithiane, 2,2,4,4,6,6-hexamethyl-","Kroto, Landsberg, et al., 1974"
 10557-71-8,Vertical value, C,9.01,PE,(4-Chlorophenyl)(trimethyl)silane,"Limouzin and Maire, 1976"
 2226-96-2,LLK, C,7.4 ¡À 0.1,LE,"1-Piperidinyloxy, 4-hydroxy-2,2,6,6-tetramethyl-","Summermann and Deffner, 1975"
 2564-83-2,LLK, C,6.73,PE,"1-Piperidinyloxy, 2,2,6,6-tetramethyl-","Morishima, Yoshikawa, et al., 1972"
 49840-66-6,LBLHLM, C,6.53 ¡À 0.05,EQ,N-(N-Pyrrolidinyl)-piperidine,"Rumack, 1986"
 67318-95-0,LLK, C,7.7,PE,"1H-Pyridino[1,2-b]pyridazine, octahydro-1-methyl-","Nelsen, Kessel, et al., 1979"
 25336-51-0,LBLHLM, C,7,PE,"1,6-Diazabicyclo[4.4.1]undecane","Honegger, Yang, et al., 1985"
 54396-68-8, , C,7.45,PE,"Diazomethane, di-(tert-butyl)-","Bock, Berkner, et al., 1992"
 14789-33-4,LLK, C,6.8,PE,"3,7-Diazabicyclo[3.3.1]nonane, 3,7-dimethyl-","Livant, Roberts, et al., 1981"
 100098-21-3, , C,7,PE,"1,7-Diazabicyclo[5.3.1]undecane","Honegger, Yang, et al., 1985"
 29949-96-0,Vertical value, C,6.85,PE,"Phosphorane,dimethylmethylenephenyl-","Starzewski and Bock, 1976"
 767-71-5,LLK, C,7.34,PE,"N,2,6-Trimethylbenzenamine","Cowling and Johnstone, 1973"
 28262-13-7,, C,7.69,PI,"Benzenemethanamine,dimethyl-","Akopyan, Vilesov, et al., 1975"
 14949-85-0,, C,7.33,EI,"Iron, tricarbonylbis(trimethyl phosphite-P)-","Innorta, Distefano, et al., 1968"
 14064-15-4,Vertical value, C,8.95,PE,"Stannane,(4-chlorophenyl)trimethyl-","Limouzin and Maire, 1975"
 56866-67-2,Vertical value, C,8.84,PE,"Germane,(4-chlorophenyl)trimethyl-","Limouzin and Maire, 1975"
 62244-45-5,, C,9.2,EI,"Silane,(3-chlorophenyl)methoxydimethyl-","Gey and Dube, 1976"
 62244-44-4,, C,9.2,EI,"Silane,(4-chlorophenyl)methoxydimethyl-","Gey and Dube, 1976"
 14484-64-1,Vertical value, C,7.72,PE,Ferbam,"Cauletti, Duffy, et al., 1977"
 815-24-7,LLK, C,8.67 ¡À 0.02,PE,"3-Pentanone, 2,2,4,4-tetramethyl-","Hernandez, Masclet, et al., 1977"
 108-83-8,LLK, C,8.98 ¡À 0.01,PE,"4-Heptanone, 2,6-dimethyl-","Hernandez, Masclet, et al., 1977"
 57602-97-8,Vertical value, C,8.73 ¡À 0.05,PE,"3-Pentanethiol-2,2,4,4-tetramethyl-","Block, Yencha, et al., 1988"
 79454-85-6,, C,8.9,PE,"1-Phosphaethylene, 1-chloro-2,2-bis(trimethylsilyl)-","Solouki, Bock, et al., 1982"
 3531-47-3,LLK, C,8.34 ¡À 0.11,EI,(Ch3)3(tert-c4H9)sn,"Lappert, Pedley, et al., 1971"
 15095-79-1,, C,8.27 ¡À 0.01,EI,"Tin, sec-butyl-trimethyl-","Yergey and Lampe, 1968"
 2097-60-1,Vertical value; , C,8.95,PE,"Stannane, triethylmethyl-","Kochi, 1980"
 75482-33-6,, C,9.42,PI,"1,2-Dicarbadodecaborane(12), 1-pentyl-","Orlov, Pustobaev, et al., 1989"
 6076-64-8,Vertical value, C,7.91,PE,"1,3,2-Diazaborolidine,1-methyl-2-phenyl-","Kroner, Noth, et al., 1974"
 36678-76-9,Vertical value, C,8.45,PE,"Arsine,dimethyl(phenylmethyl)","Schmidt, Schweig, et al., 1977"
 1118-10-1,RDSH, C,8.34 ¡À 0.02,EI,"Stannane, isobutyl(trimethyl-","Yergey and Lampe, 1968"
 6999-03-7,Vertical value, C,8.67,PE,"Silane,(4-bromophenyl)trimethyl-","Limouzin and Maire, 1976"
 33664-05-0,, C,8.86,EI,"Silane,fluorodimethyl(4-methylphenyl)-","Gey and Dube, 1976"
 33664-04-9,, C,8.86,EI,"Silane,fluorodimethyl(3-methylphenyl)-","Gey and Dube, 1976"
 32579-76-3,, C,7.64,PE,"Piperidine,1-chloro-2,2,6,6-tetramethyl-","Bodor, Kaminski, et al., 1974"
 62244-55-7,, C,8.42,EI,"Silane,fluoro(4-methoxyphenyl)dimethyl-","Gey and Dube, 1976"
 51006-57-6,Vertical value, C,9.0 ¡À 0.1,PE,"2,8,9-Trioxa-5-aza-1-silabicyclo[3.3.3]undecane, 1-(3-chloropropyl)-","Peel and Dianxum, 1988"
 61542-20-9,Vertical value, C,9.38,PE,"Propanoic acid, 2,2-dimethyl-, 2-(chloroamino)-2-methylpropyl ester","Gerson, Worley, et al., 1978"
 455-17-4,Vertical value, C,9,PE,"Silane, (4-fluorophenyl)trimethyl-","Limouzin and Maire, 1976"
 62244-46-6,, C,9.22,EI,"Silane,(3-bromophenyl)methoxydimethyl-","Gey and Dube, 1976"
 17021-92-0,, C,9.16,EI,"Silane,(4-bromophenyl)methoxydimethyl-","Gey and Dube, 1976"
 14630-42-3,, C,9.35 ¡À 0.04,EI,"1-Butyne, 3,3-dimethyl-1-trimethylsilyl-","Bock and Seidl, 1968"
 124-11-8,, C,9.42 ¡À 0.01,PI,1-Nonene,"Rang, Martinson, et al., 1974"
 1678-92-8,, C,9.46,EQ,"Cyclohexane, propyl-","Sieck and Mautner(Meot-Ner), 1982"
 826-15-3, , C,8.2,PE,"1-Aza-5-boratricyclo[3.3.3.01,5]undecane","Lee, Livant, et al., 1985"
 12082-03-0,LLK, C,7.0 ¡À 0.1,EI,(¦Ç,"Gilbert, Leach, et al., 1973"
 5761-16-0,Vertical value, C,8.15,PE,"3H-1,2-Dithiole-3-thione,5-(4-chlorophenyl)-","Gonbeau, Guimon, et al., 1975"
 1795-31-9,Vertical value, C,8.5,PE,"Silanol, trimethyl-, phosphite (3:1)","Zverev, Vakar, et al., 1986"
 696-29-7,LBLHLM, C,9.33,EQ,"Cyclohexane, (1-methylethyl)-","Sieck and Mautner(Meot-Ner), 1982"
 3073-66-3,LBLHLM, C,9.39,EQ,"Cyclohexane, 1,1,3-trimethyl-","Sieck and Mautner(Meot-Ner), 1982"
 2040-95-1,, C,9.95 ¡À 0.03,PE,"Cyclopentane, butyl-","Rang, Paldoia, et al., 1974"
 6434-78-2,LLK, C,8.90 ¡À 0.01,PI,"2-Nonene, (E)-","Rang, Martinson, et al., 1974"
 20237-46-1,LLK, C,8.84 ¡À 0.01,PI,cis-3-Nonene,"Rang, Martinson, et al., 1974"
 20063-92-7,LLK, C,8.84 ¡À 0.01,PI,"3-Nonene, (E)-","Rang, Martinson, et al., 1974"
 10405-85-3,LLK, C,8.81 ¡À 0.01,PI,trans--4-Nonene,"Rang, Martinson, et al., 1974"
 6434-77-1,LLK, C,8.90 ¡À 0.01,PI,cis-2-Nonene,"Rang, Martinson, et al., 1974"
 10405-84-2,LLK, C,8.80 ¡À 0.01,PI,cis-4-Nonene,"Rang, Martinson, et al., 1974"
 4926-90-3,LBLHLM, C,9.34,EQ,"Cyclohexane, 1-ethyl-1-methyl-","Sieck and Mautner(Meot-Ner), 1982"
 12108-04-2,, C,8.2 ¡À 0.3,EI,"Vanadium, tetracarbonyl(¦Ç5-2,4-cyclopentadien-1-yl)-","Winters and Kiser, 1965"
 12082-05-2,, C,7.47,EI,Fluorobenzenechromium tricarbonyl,"Muller, 1969"
 12082-06-3,, C,7.36,EI,Iodobenzenechrornium tricarbonyl,"Muller, 1969"
 59777-82-1,Vertical value, C,10.77,PE,"1-Propanamine, N,N-dipropyl-, compound with bromine(1:1)","Utsunomiya, Kobayashi, et al., 1976"
 7182-10-7,Vertical value; , C,¡Ü7.46,PE,"Piperidine, 1-(1-butenyl)-","Muller, Previdoli, et al., 1981"
 20411-17-0,, C,7.8 ¡À 0.15,EI,"8-Azabicyclo[3.2.1]octane,3-methoxy-8-methyl-endo-","Grutzmacher and Lange, 1978"
 826-36-8,LLK, C,7.74,PE,"4-Piperidinone, 2,2,6,6-tetramethyl-","Bodor, Kaminski, et al., 1974"
 13894-28-5,Vertical value, C,7.63,PE,"2-Propenoic acid, 3-(diethylamino)-, ethyl ester, (E)-","Gompper, Holsboer, et al., 1973"
 3637-11-4,LLK, C,8.51 ¡À 0.05,EI,"1-Hydroxy-2,2,6,6-tetramethyl-4-piperidinone","Hvistendahl and Undheim, 1971"
 35136-87-9,, C,7.7 ¡À 0.15,EI,"8-Azabicyclo[3.2.1]octan-3-ol,8-methyl-methanesulfonate(ester),exo-","Grutzmacher and Lange, 1978"
 57128-85-5,Vertical value, C,8.35,PE,"Bicyclo[2.2.1]heptan-2-ol, 3-(dimethylamino)-, 2-exo, 3-endo-","Kunz, Lindig, et al., 1978"
 6932-49-6,Vertical value, C,8.78,PE,"1-Azacyclononan-2-one, 1-methyl-","Treschanke and Rademacher, 1985"
 73321-04-7,Vertical value, C,7.79,PE,"9-Azabicyclo[3.3.1]nonane,9-methoxy-","Nelsen, Kessel, et al., 1980"
 57070-90-3,Vertical value, C,8.6,PE,"Bicyclo[2.2.1]heptan-2-ol,3-(dimethylamino)-(endo,endo)-","Kunz, Lindig, et al., 1978"
 37727-90-5,Vertical value, C,8.02,PE,"Hexahydroazocine-5-one,1-ethyl-","Spanka, Boese, et al., 1987"
 16487-33-5,, C,7.9 ¡À 0.15,EI,"8-Azabicyclo[3.2.1]octane,3-methoxy-8-methyl, exo-","Grutzmacher and Lange, 1978"
 4399-80-8,, C,7.40 ¡À 0.05,EI,"1-Pyrrolidinyloxy, 3-(aminocarbonyl)-2,2,5,5-tetramethyl-","Hvistendahl and Undheim, 1971"
 673-33-6,Vertical value; , C,8,PE,"Piperidine, 1-(2-methyl-1-propenyl)-","Muller, Previdoli, et al., 1981"
 491-25-8,Vertical value, C,7.84,PE,"9-Azabicyclo[3.3.1]nonane,9-methyl-","Nelsen, Kessel, et al., 1980"
 13750-57-7,Vertical value; , C,7.29,PE,(E)-1-Pyrrolidino-2-pentene,"Muller, Previdoli, et al., 1981"
 6407-36-9,LLK, C,8.23,PE,N-Cyclohexyl acetonimine,"Zverev, Vovna, et al., 1973"
 99838-32-1,Vertical value, C,7.79,PE,1-Methyl-5-methyleneoctahydroazocine,"Spanka and Rademacher, 1986"
 53317-88-7,Vertical value, C,7.65,PE,"Iron, tetracarbonyl(pyridine)-, (tb-5-12)-","Flamini, Semprini, et al., 1978"
 45732-65-8,Vertical value, C,8.05 ¡À 0.015,PE,"1-Azabicyclo[2.2.2]octane, 4-ethyl-","Bieri and Heilbronner, 1974"
 1586-73-8,Vertical value; , C,8.6,PE,Tris(trimethylsilyl)amine,"Starzewski, Dieck, et al., 1974"
 12082-02-9,, C,7.4,EI,Bromobenzenechromium tricarbonyl,"Muller, 1969"
 4923-78-8,LBLHLM, C,9.32,EQ,"Cyclohexane, 1-ethyl-2-methyl-, trans-","Sieck and Mautner(Meot-Ner), 1982"
 2234-75-5,LBLHLM, C,9.38,EQ,"Cyclohexane, 1,2,4-trimethyl-","Sieck and Mautner(Meot-Ner), 1982"
 69320-67-8,Vertical value, C,7.86,PE,"Methanamine, N-methyl-1-(trimethylsilyl)-N-[(trimethylsilyl)methyl]-","Bock, Kaim, et al., 1979"
 3074-64-4,LLK, C,8.145 ¡À 0.005,PE,"2,3-Dimethyl-2-heptene","Masclet, Grosjean, et al., 1973"
 1502-38-1,, C,9.70 ¡À 0.05,EI,"Cyclooctane, methyl-","Holmes and Lossing, 1991"
 82086-46-2,Vertical value; , C,7.74,PE,"1,3,2-Oxazaphospholidin-2-amine, 3-methyl-N,N-bis(1-methylethyl)-","Worley, Hargis, et al., 1982"
 6485-79-6,Vertical value, C,9.5,PE,Triisopropylsilane,"Beltram, Fehlner, et al., 1980"
 17877-17-7,Vertical value, C,8.18,PE,"Piperidine,1-[(trimethylsilyl)methyl]-","Bock, Kaim, et al., 1979"
 61542-21-0,Vertical value, C,9.56,PE,"Propanoic acid, 2,2-dimethyl-, 2-(dichloroamino)-2-methylpropyl ester","Gerson, Worley, et al., 1978"
 3235-51-6, , C,7.3,PE,"Triethylamine, 2,2'2''-trimethoxy-","Brodskaya, Voronkov, et al., 1987"
 7779-27-3, , C,7.4,PE,"1,3,5-Triazine, 1,3,5-triethylhexahydro-","Beck, Hunig, et al., 1986"
 102-69-2,LLK, C,7.4,PE,"1-Propanamine, N,N-dipropyl-","Peel and Willett, 1977"
 58471-09-3,LLK, C,7.8 ¡À 0.1,PE,"Neopentyl, t-butyl amine","Aue, Webb, et al., 1976"
 13151-50-3,LL, C,10.31,EI,"trans-1,2-Dimethylcycloheptane","Herzschuh and Mitrach, 1992"
 13151-53-6,LL, C,10.41,EI,"cis-1,3-Dimethylcycloheptane","Herzschuh and Mitrach, 1992"
 13151-51-4,LL, C,10.12,EI,"cis-1,2-Dimethylcycloheptane","Herzschuh and Mitrach, 1992"
 33374-48-0,RDSH, C,7.8 ¡À 0.1,EI,Di-n-butylmethylphosphine,"Muller and Herberhold, 1968"
 688-71-1,RDSH, C,10.02,EI,Tripropyl borate,"Lappert, Litzow, et al., 1970"
 38704-87-9,Vertical value; , C,8.31,PE,"Pyrazolidine,1,2-bis(1-methylethyl)-","Nelsen, 1984"
 68970-11-6, , C,6.57 ¡À 0.05,EQ,"Azocine, 1-dimethylamino-octahydro-","Rumack, 1986"
 67092-89-1,Vertical value; , C,8.35,PE,"1-Azetidinamine, N,N-dipropyl-","Nelsen, 1984"
 53779-87-6,Vertical value, C,7.59,PE,"Pyrazolidine,4,4-diethyl-1,2-dimethyl-,trans-","Nelsen and Buschek, 1974"
 29947-67-9, , C,6.87,PE,"Phosphorane, trimethyl[(pentamethyldisilanyl)methylene]-","Schmidbaur and Vornberger, 1972"
 923-99-9,Vertical value, C,8.85,PE,Tripropyl phosphite,"Zverev, Sinyashina, et al., 1990"
 116-17-6,RDSH, C,8.05,EI,Triisopropyl phosphite,"Muller and Fenderl, 1969"
 50787-13-8,, C,8.128 ¡À 0.005,PE,"3-Hexene, 3-ethyl-4-methyl-","Masclet, Grosjean, et al., 1973"
 3074-67-7,LLK, C,8.077 ¡À 0.005,PE,"(E)-3-Heptene, 3,4-dimethyl-","Masclet, Grosjean, et al., 1973"
 68969-73-3, , C,8.1,PE,"Diphosphirane, 1,2-bis(1,1-dimethylethyl)-","Gleiter, Bohm, et al., 1981"
 1793-90-4,Vertical value, C,8.8,PE,"Germanium, triethylallyl-","Schweig, Weidner, et al., 1973"
 59643-45-7,Vertical value, C,8.33,PE,"Mercury, (2,2-dimethylpropyl)(2-methylpropyl)-","Fehlner, Ulman, et al., 1976"
 57556-03-3,, C,8.34 ¡À 0.05,EI,"3(2H)-Thiophenone,5-ethyl-2-methyl-","Thorstad, Undheim, et al., 1975"
 540-42-1,Vertical value, C,9.94,PE,"Propanoic acid, 2-methylpropyl ester","Benoit and Harrison, 1977"
 2426-08-6, , C,9.2,PE,"Oxirane, (butoxymethyl)-","Rodin, Chistyakov, et al., 1985"
 696-79-7,Vertical value; , C,9.63,PE,"2,2,4-Trimethyl-1,3-dioxane","Asfandiarov and Zykov, 1983"
 29887-56-7,LLK, C,8.7,PE,"Cyclopentane, 1,2-dimethoxy-, trans-","Brown, 1976"
 22431-90-9,Vertical value; , C,9.26,PE,"1,2-Dioxolane,3,3,5,5-tetramethyl-","Brown, 1975"
 61011-51-6,LLK, C,8.6,PE,"Cyclopentane, 1,2-dimethoxy-,cis-","Brown, 1976"
 7429-41-6,Vertical value, C,9.68,PE,"Cyclohexanol,2-methoxy-,cis-","Brown, 1976"
 7429-40-5,Vertical value, C,9.69,PE,"Cyclohexanol, 2-methoxy-, (1R,2R)-rel-","Brown, 1976"
 57556-09-9,, C,8.49 ¡À 0.05,EI,"3(2H)-Thiophenone,2,2,5-trimethyl-","Thorstad, Undheim, et al., 1975"
 33687-83-1,, C,8.53 ¡À 0.05,EI,"2(3H)-Thiophenone,3,3,5-trimethyl-","Thorstad, Undheim, et al., 1975"
 57556-06-6,, C,8.22 ¡À 0.05,EI,"3(2H)-Thiophenone,2-ethyl-5-methyl-","Thorstad, Undheim, et al., 1975"
 63359-63-7,, C,7.91 ¡À 0.05,EI,"2,5-dimethyl-3-(methylthio)furan","Cederlund, Lantz, et al., 1977"
 57556-17-9,, C,7.78 ¡À 0.05,EI,"Thiophene,2-methoxy-3,5-dimethyl-","Thorstad, Undheim, et al., 1975"
 57556-08-8,, C,7.89 ¡À 0.05,EI,"Thiophene,3-methoxy-2,5-dimethyl-","Thorstad, Undheim, et al., 1975"
 3883-58-7, , C,9.08 ¡À 0.05,PE,"1,3-Cyclopentanedione, 2,2-dimethyl-","Houk, Davis, et al., 1973"
 2941-51-7, , C,9.8,PE,"1,4-Dichloronorbornane","Honegger, Heilbronner, et al., 1985"
 1193-55-1,, C,9.37 ¡À 0.05,PE,"1,3-Cyclohexanedione, 2-methyl-","Houk, Davis, et al., 1973"
 823-36-9,Vertical value, C,9.4 ¡À 0.1,PE,"1,3-Cyclopentanedione, 2-ethyl-","Houk, Davis, et al., 1973"
 20657-21-0,Vertical value, C,9.61 ¡À 0.05,PE,"Acetic acid, cyclopent-2-en-1-yl ester","McAlduff, Caramella, et al., 1978"
 70517-23-6,, C,8.3,PE,"1,3-Dioxolane,2,2-dimethyl-4,5-bis(methylene)-","Scharf, Plum, et al., 1979"
 67105-55-9,Vertical value, C,8.87,PE,"Spiro[2,3-dioxabicyclo[2.2.1]heptane,7,1'-cyclopropane","Gleiter, Schang, et al., 1980"
 5857-25-0,, C,8.79 ¡À 0.05,PE,"2-Cyclopenten-1-one,2-ethyl-3-hydroxy-","Houk, Davis, et al., 1973"
 35983-73-4,, C,9.00 ¡À 0.05,EI,"2(3H)-Furanone,3,3,5-trimethyl-","Thorstad, Undheim, et al., 1975"
 1559-45-1,, C,9.04 ¡À 0.05,EI,"3(2H)-Furanone,2,2,5-trimethyl-","Thorstad, Undheim, et al., 1975"
 57556-12-4,, C,7.86 ¡À 0.05,EI,"Furan,3-methoxy-2,5-dimethyl-","Thorstad, Undheim, et al., 1975"
 111-71-7,, C,9.65 ¡À 0.02,PE,Heptanal,"Ashmore and Burgess, 1978"
 123-19-3,LLK, C,9.04 ¡À 0.02,PE,4-Heptanone,"Ashmore and Burgess, 1978"
 106-35-4,LBLHLM, C,9.18,PI,3-Heptanone,"Traeger and McAdoo, 1986"
 110-43-0,LLK, C,9.18 ¡À 0.02,PE,2-Heptanone,"Ashmore and Burgess, 1978"
 565-80-0,LLK, C,8.947 ¡À 0.005,PE,"3-Pentanone, 2,4-dimethyl-","Hernandez, Masclet, et al., 1977"
 590-50-1,LLK, C,9.226 ¡À 0.005,PE,"2-Pentanone, 4,4-dimethyl-","Hernandez, Masclet, et al., 1977"
 110-12-3,, C,9.284 ¡À 0.005,PE,"2-Hexanone, 5-methyl-","Hernandez, Masclet, et al., 1977"
 114693-78-6,Vertical value, C,9.33 ¡À 0.05,PE,"Oxirane, 2-(1,1-dimethylethyl)-2-trimethylsilyl-","Block, Yencha, et al., 1988"
 22425-91-8,, C,8.54,EI,"1,3-Oxathiane, 2,4,6-trimethyl-, (2¦Á,4¦Á,6¦Â)-","Jalonen, Pasanen, et al., 1973"
 22521-88-6,, C,8.55,EI,"1,3-Oxathiane, 2,4,6-trimethyl-, (2¦Á,4¦Á,6¦Á)-","Jalonen, Pasanen, et al., 1973"
 22425-90-7,, C,8.58,EI,"1,3-Oxathiane, 2,4,6-trimethyl-, (2¦Á,4¦Â,6¦Á)-","Jalonen, Pasanen, et al., 1973"
 32338-77-5, , C,8.3,PE,"Thiirane, (butoxymethyl)-","Rodin, Chistyakov, et al., 1985"
 590-67-0,LLK, C,9.8 ¡À 0.2,EI,"Cyclohexanol, 1-methyl-","Fortin, Forest, et al., 1973"
 2550-21-2,LBLHLM, C,9.19,PI,"2-Hexanone, 3-methyl-","Traeger and McAdoo, 1986"
 20669-04-9,LLK, C,9.019 ¡À 0.005,PE,C2H5C(CH3)2COCH3,"Hernandez, Masclet, et al., 1977"
 931-56-6,Vertical value; , C,9.22 ¡À 0.03,PE,1-Methoxycyclohexane,"Neijzen, Schmitz, et al., 1975"
 26254-92-2,LLK, C,9.44,EI,"Butanal, 2-ethyl-3-methyl-","Holmes, Fingas, et al., 1981"
 3531-48-4,Vertical value, C,8.57,PE,"Stannane, cyclohexyltrimethyl-","Hosomi and Traylor, 1975"
 20107-37-3,, C,9.08 ¡À 0.04,EI,"(E)-3,3-Dimethyl-1-trimethylsilyl-1-butene","Bock and Seidl, 1968"
 21752-80-7,, C,8.95 ¡À 0.04,EI,"1,3-Bis(trimethylsilyl)propyne","Bock and Seidl, 1968"
 497-38-1,LLK, C,8.9,PE,2-Norbornanone,"Frost, Westwood, et al., 1980"
 10218-02-7,Vertical value; , C,9.06,PE,Norbornadieone,"Hentrich, Gunkel, et al., 1974"
 57556-13-5,, C,7.69 ¡À 0.05,EI,"Selenophene,3-methoxy-2,5-dimethyl-","Thorstad, Undheim, et al., 1975"
 57556-11-3,, C,8.21 ¡À 0.05,EI,"3(2H)-Selenophenone,2,2,5-trimethyl-","Thorstad, Undheim, et al., 1975"
 57556-20-4,, C,7.98 ¡À 0.05,EI,"2(3H)-Selenophenone,3,3,5-trimethyl-","Thorstad, Undheim, et al., 1975"
 1121-64-8,Vertical value, C,9.14,PE,3-Cyclohepten-1-one,"Hentrich, Gunkel, et al., 1974"
 1121-66-0,Vertical value, C,9.25,PE,2-Cyclohepten-1-one,"Hentrich, Gunkel, et al., 1974"
 1121-37-5,LLK, C,9.1,PE,"Methanone, dicyclopropyl-","Kelder, Cerfontain, et al., 1974"
 5891-25-8,Vertical value, C,9.75,PE,"Pent-4-yn-3-one, 2,2-dimethyl-","Carlier and Mouvier, 1979"