CAS,Comment,Formula,IE,Method,Name,Refer
 18245-28-8,LBLHLM, C,8.1,PE,"Silane, trimethyl-2-thienyl-","Veszpremi, Harada, et al., 1983"
 180-97-2,Vertical value, C,8.09,PE,"1,5,7,11-Tetrathiaspiro[5.5]undecane","Kobayashi, Gleiter, et al., 1977"
 53520-28-8,Vertical value, C,8.06,PE,"2H-Thiopyran,3,4-dihydro-4,4-dimethyl-","Planckaert, Doucet, et al., 1974"
 539-43-5,LLK, C,8.7,PE,p-tolylmercury chloride,"Furlani, Piancastelli, et al., 1981"
 2117-39-7,Vertical value; , C,8.71 ¡À 0.05,PE,Benzyl(chloro)mercury,"Baidin, Timoshenko, et al., 1985"
 623-12-1,LBLHLM, C,8.25 ¡À 0.03,PI,"Benzene, 1-chloro-4-methoxy-","Ponomarev, Arapov, et al., 1986"
 2845-89-8,, C,8.7 ¡À 0.1,EI,"Benzene, 1-chloro-3-methoxy-","Brown, 1970"
 873-76-7,LBLHLM, C,8.58,EI,4-Chlorobenzyl alcohol,"Russell, Freiser, et al., 1983"
 766-51-8,LBLHLM, C,8.42,EI,"Benzene, 1-chloro-2-methoxy-","Russell, Freiser, et al., 1983"
 279-81-2,Vertical value, C,8.43,PE,2-Thiabicyclo[3.2.1]octane,"Barraclough, Bilgic, et al., 1979"
 12078-32-9,LLK, C,8,PE,"Iron, (1,3-butadiene)tricarbonyl-","Worley, Webb, et al., 1980"
 873-63-2,LBLHLM, C,8.51,EI,3-Chlorobenzyl alcohol,"Russell, Freiser, et al., 1983"
 12287-50-2, , C,8.6,PE,"Iron, ¦Ç","Louwen, Hart, et al., 1982"
 106-43-4,LLK, C,8.8 ¡À 0.1,EI,"Benzene, 1-chloro-4-methyl-","Tajima and Tsuchiya, 1972"
 100-44-7,LL, C,9.10 ¡À 0.02,PI,Benzyl chloride,"Traeger and Kompe, 1990"
 95-49-8,LBLHLM, C,8.62,PE,"Benzene, 1-chloro-2-methyl-","Baidin, Misharev, et al., 1985"
 2294-41-9,Vertical value; , C,8.77,PE,2-Chloronorbornadiene,"Houk, Rondan, et al., 1983"
 108-41-8,LLK, C,8.7 ¡À 0.1,EI,"Benzene, 1-chloro-3-methyl-","Tajima and Tsuchiya, 1972"
 2396-03-4,LLK, C,8.32,DER,p-Methoxyphenyl radical,"Nuyken and Messmer, 1977"
 74725-76-1,LBLHLM, C,8.6,PE,6-Iodotricyclo[3.1.1.0,"Abeywickrema, Della, et al., 1984"
 114-38-5,, C,8.45,EI,(o-Chlorophenyl)urea,"Baldwin, Loudon, et al., 1976"
 14874-82-9, , C,8.1,PE,"Rhodium, dicarbonyl(2,4-pentanedionato-O,O')-, (SP-4-2)-","Van Dam, Terpstra, et al., 1980"
 78995-60-5, , C,8.7,PE,6-Bromotricyclo[3.1.1.0,"Abeywickrema, Della, et al., 1984"
 5889-54-3,, C,9.2,EI,"Bicyclo[2.2.1]hept-2-ene,5-bromo-,exo-","Tomer, Turk, et al., 1972"
 5810-82-2,, C,9.2,EI,"Bicyclo[2.2.1]hept-2-ene,5-bromo-,endo-","Tomer, Turk, et al., 1972"
 31991-53-4,LBLHLM, C,8.55,PE,1-Bromonortricyclene,"Della, Pigou, et al., 1985"
 95-46-5,LBLHLM, C,8.53,PE,"Benzene, 1-bromo-2-methyl-","Baidin, Misharev, et al., 1985"
 591-17-3,LLK, C,8.77,PE,"Benzene, 1-bromo-3-methyl-","Johnstone and Mellon, 1973"
 12287-48-8, , C,8.3,PE,"Iron, ¦Ç","Louwen, Hart, et al., 1982"
 31405-07-9,, C,7.49,EI,"[1,2]Dithiolo[1,5-b][1,2]dithiole-7-s","Johnstone and Ward, 1969"
 578-57-4,, C,8.3 ¡À 0.15,CTS,"Benzene, 1-bromo-2-methoxy-","Voigt and Reid, 1964"
 2398-37-0,, C,8.7 ¡À 0.1,EI,"Benzene, 1-bromo-3-methoxy-","Brown, 1970"
 104-92-7,LBLHLM, C,8.14 ¡À 0.03,PI,"Benzene, 1-bromo-4-methoxy-","Ponomarev, Arapov, et al., 1986"
 104-95-0, , C,7.5,PE,"Benzene, 1-bromo-4-(methylthio)-","Baker, Armen, et al., 1981"
 106-38-7,LBLHLM, C,8.42,PE,"Benzene, 1-bromo-4-methyl-","Baidin, Misharev, et al., 1985"
 656-31-5,, C,8.5,EI,(2-fluorophenyl)urea,"Baldwin, Loudon, et al., 1976"
 13114-90-4,, C,8.45,EI,"Urea, (2-bromophenyl)-","Baldwin, Loudon, et al., 1976"
 5391-30-0,, C,8.1,EI,"Thiourea,(2-bromophenyl)-","Baldwin, Loudon, et al., 1976"
 456-49-5,LBLHLM, C,8.41 ¡À 0.06,S,m-Fluoroanisole,"Oikawa, Abe, et al., 1985"
 459-60-9,LBLHLM, C,8.26 ¡À 0.03,PI,"Benzene, 1-fluoro-4-methoxy-","Ponomarev, Arapov, et al., 1986"
 656-32-6,, C,8.15,EI,"Thiourea,(2-fluorophenyl)-","Baldwin, Loudon, et al., 1976"
 100-39-0,LL, C,9.02 ¡À 0.02,PI,"Benzene, (bromomethyl)-","Traeger and Kompe, 1990"
 5344-82-1,, C,8.05,EI,"Thiourea, (2-chlorophenyl)-","Baldwin, Loudon, et al., 1976"
 56444-80-5,, C,8.15 ¡À 0.01,PI,"1-Propyne, 1-[(2-methylpropyl)thio]-","Trofimov, Mel'der, et al., 1975"
 95-52-3,LLK, C,8.907 ¡À 0.008,EQ,"Benzene, 1-fluoro-2-methyl-","Lias and Ausloos, 1978"
 352-70-5,RDSH, C,8.92 ¡À 0.01,PI,"Benzene, 1-fluoro-3-methyl-","Watanabe, Nakayama, et al., 1962"
 350-50-5,LBLHLM, C,9.2,PE,"Benzene, (fluoromethyl)-","Peel and Von Nagy-Felsobuki, 1987"
 352-32-9,LLK, C,8.794 ¡À 0.008,EQ,"Benzene, 1-fluoro-4-methyl-","Lias and Ausloos, 1978"
 14023-80-4, , C,8,PE,Dicarbonylacetylacetonato iridium,"Van Dam, Terpstra, et al., 1980"
 61216-79-3, , C,7.8,PE,"Iron, ¦Ç","Louwen, Hart, et al., 1982"
 13964-90-4,, C,8.25,PE,"Cobalt, tetracarbonyl(trimethylstannyl)-","Harris and Spalding, 1980"
 2009-52-1,Vertical value, C,7.95,PE,"9H-Purin-6-amine,N,9-dimethyl-","Lin, Yu, et al., 1980"
 70086-66-7,Vertical value, C,7.83,PE,"Benzenamine,3-(methylseleno)-","Chmutova, Vtyurina, et al., 1979"
 104-96-1,Vertical value, C,7.6,PE,4-Methylmercaptoaniline,"Chmutova, Vtyurina, et al., 1979"
 35065-62-4,Vertical value, C,7.88,PE,"Benzenamine,4-(methylseleno)-","Chmutova, Vtyurina, et al., 1979"
 70086-67-8,Vertical value, C,7.95,PE,"Benzenamine,2-(methylseleno)-","Chmutova, Vtyurina, et al., 1979"
 21744-12-7,Vertical value, C,8.72,PE,"2-Azabicyclo[2.2.2]octane,2-nitroso","Battiste, Davis, et al., 1975"
 26081-83-4,Vertical value, C,9.21 ¡À 0.03,PE,"6,7-Diazabicyclo[3.2.2]non-6-ene 6-oxide","Bunzli, Olsen, et al., 1977"
 65927-08-4,, C,8.1,PE,"3,5-Dihydro-4H-pyrazole-4-thione-3,5-tetramethyl-","Kindermann, Poppek, et al., 1990"
 63434-97-9,Vertical value, C,7.83,PE,"1,4-Diazepine-2,3-dithione, 1,4-dimethyl-perhydro-","Henriksen, Isaksson, et al., 1981"
 30467-62-0,Vertical value, C,8.61,PE,"4H-Pyrazole-4-one,3,5-dihydro-3,3,5,5-tetramethyl-","Houk, Chang, et al., 1975"
 98-91-9, , C,9,PE,Benzenecarbothioic acid,"Meeks, Wahlborg, et al., 1981"
 54143-30-5,, C,8.04 ¡À 0.03,PE,"6,7-Diazabicyclo[3.2.2]non-6-ene 6,7-dioxide","Bunzli, Olsen, et al., 1977"
 51069-42-2,Vertical value, C,8.81 ¡À 0.015,PE,"1-Azabicyclo[2.2.2]octane,4-nitro-","Bieri and Heilbronner, 1974"
 62883-45-8, , C,7.7,PE,"Ruthenium, ¦Ç","Worley, Webb, et al., 1982"
 99-06-9,LLK, C,9.2 ¡À 0.2,EI,"Benzoic acid, 3-hydroxy-","Benoit, 1973"
 99-96-7,LLK, C,9.2 ¡À 0.2,EI,"Benzoic acid, 4-hydroxy-","Benoit, 1973"
 938-55-6,Vertical value, C,7.78,PE,"1H-Purin-6-amine, N,N-dimethyl-","Lin, Yu, et al., 1980"
 19078-32-1,Vertical value, C,9.57,PE,"Pyrazole, 3,4,4,5-tetramethyl-","Rademacher, 1975"
 66343-91-7, , C,7.84,PE,"2,3-Diazabicyclo[2.2.2]oct-2-ene, 1-methyl-","Engel, Gerth, et al., 1988"
 14288-15-4,Vertical value, C,7.63,PE,"2,3-Diazabicyclo[2.2.1]hept-5-ene,2,3-dimethyl-","Rademacher and Koopman, 1975"
 42484-34-4,Vertical value, C,8.09,PE,"Guanine, 1,9-dimethyl-","Yu, Kim, et al., 1992"
 43195-77-3,, C,7.64 ¡À 0.04,PE,"6,7-Diazabicyclo[3.2.2]non-6-ene","Boyd, Bunzli, et al., 1973"
 3721-19-5,, C,9.15 ¡À 0.15,EI,Exo-5-chlorobicyclo[2.2.1]hept-2-ene,"Steele, Jennings, et al., 1965"
 3509-46-4,, C,9.51 ¡À 0.15,EI,3-Chloronortricyclene,"Steele, Jennings, et al., 1965"
 3394-09-0,, C,8.1,EI,"Thiourea,(2-aminophenyl)-","Baldwin, Loudon, et al., 1976"
 13156-75-7,Vertical value, C,8.86 ¡À 0.05,PE,"2-Furancarboxamide,N,N-dimethyl-","Fringuelli, Marino, et al., 1976"
 55685-52-4,Vertical value, C,8.39 ¡À 0.05,PE,"2-Tellurophenecarboxamide,N,N-dimethyl-","Fringuelli, Marino, et al., 1976"
 55685-51-3,Vertical value, C,8.85 ¡À 0.05,PE,"2-Selenophenecarboxamide,N,N-dimethyl-","Fringuelli, Marino, et al., 1976"
 30717-57-8,Vertical value, C,8.84 ¡À 0.05,PE,"2-Thiophenecarboxamide,N,N-dimethyl-","Fringuelli, Marino, et al., 1976"
 23003-25-0,, C,8.24 ¡À 0.05,EI,"3-Pyridinol, 6-methyl-2-(methylthio)-","Gronneberg and Undheim, 1972"
 90-04-0,RDSH, C,7.5 ¡À 0.1,CTS,"Benzenamine, 2-methoxy-","Farrell and Newton, 1966"
 536-90-3,RDSH, C,7.8 ¡À 0.1,EI,"Benzenamine, 3-methoxy-","Brown, 1970"
 104-94-9,LLK, C,7.08,PE,"Benzenamine, 4-methoxy-","Behan, Johnstone, et al., 1976"
 3721-18-4,, C,9. ¡À 10.,EI,Endo-5-chlorobicyclo[2.2.1]hept-2-ene,"Steele, Jennings, et al., 1965"
 33399-46-1,Vertical value; , C,9.25 ¡À 0.03,PE,4-Ethoxypyridine,"Cook, El-Abbady, et al., 1977"
 18475-02-0,Vertical value, C,7.77,PE,"Iron, tetracarbonyl(trimethylphosphine)-","Flamini, Semprini, et al., 1978"
 14878-71-8,, C,7.65 ¡À 0.05,EI,"Iron, tetracarbonyl(trimethyl phosphite-P)-","Distefano, Innorta, et al., 1968"
 108-47-4,RDSH, C,8.85 ¡À 0.03,PI,"Pyridine, 2,4-dimethyl-","Watanabe, Nakayama, et al., 1962"
 108-48-5,LLK, C,8.87,PE,"2,6-Lutidine","Utsunomiya, Kobayashi, et al., 1978"
 583-61-9,RDSH, C,8.85 ¡À 0.02,PI,"Pyridine, 2,3-dimethyl-","Watanabe, Nakayama, et al., 1962"
 106-49-0,LLK, C,7.37,PE,p-Aminotoluene,"Cowling and Johnstone, 1973"
 95-53-4,LL, C,7.58,EI,o-Toluidine,"Selim, Rabbih, et al., 1992"
 589-93-5,Vertical value; , C,8.80 ¡À 0.05,PE,"Pyridine, 2,5-dimethyl-","Heilbronner, Hornung, et al., 1972"
 591-22-0,Vertical value; , C,9.25,PE,"Pyridine, 3,5-dimethyl-","Ramsey and Walker, 1974"
 100-46-9,LBLHLM, C,8.49 ¡À 0.06,EI,Benzylamine,"Selim, Rabbih, et al., 1987"
 108-44-1,LLK, C,7.55,PE,"Benzenamine, 3-methyl-","Cowling and Johnstone, 1973"
 583-58-4,Vertical value; , C,9.3,PE,"Pyridine, 3,4-dimethyl-","Aue and Bowers, 1979"
 63212-76-0,LBLHLM, C,10.02,PI,"2-Pentynonitrile, 4,4-dimethyl-","Orlov, Boganov, et al., 1985"
 100-61-8,LBLHLM, C,7.38 ¡À 0.05,EQ,"Aniline, N-methyl-","Mautner(Meot-Ner), Nelsen, et al., 1984"
 3551-27-7,LLK, C,6.28 ¡À 0.02,PE,Cycloheptatrienyl radical,"Koenig and Chang, 1978"
 2154-56-5,T = 0K; , C,7.236,LS,Benzyl radical,"Im and Bernstein, 1991"
 27890-67-1,Vertical value, C,8.8,PE,"2,4-Cyclohexadien-1-one,6-methylene-","Eck, Schweig, et al., 1978"
 65-85-0,LBLHLM, C,9.3,PE,Benzoic acid,"Klasinc, Kovac, et al., 1983"
 274-09-9, , C,8,PE,"1,3-Benzodioxole","Anderson, Kollman, et al., 1979"
 553-97-9,LLK, C,9.78,PE,"p-Benzoquinone, 2-methyl-","Kobayashi, 1975"
 533-75-5,RDSH, C,9.86 ¡À 0.02,EI,"2,4,6-Cycloheptatrien-1-one, 2-hydroxy-","Higasi, Nozoe, et al., 1957"
 123-08-0,RDSH, C,9.32 ¡À 0.02,EI,"Benzaldehyde, 4-hydroxy-","Foffani, Pignataro, et al., 1964"
 401-75-2,, C,10.46 ¡À 0.02,PI,Trifluoromethylcyclohexane,"Watanabe, Nakayama, et al., 1962"
 3131-54-2,Vertical value, C,9.4,PE,"3,5-Cyclohexadiene-1,2-dione,4-methyl-","Schang, Gleiter, et al., 1978"
 53735-22-1,Vertical value; , C,9.64,PE,"Bicyclo[4.1.0]hept-3-en-2,5-dione","Gleiter, Jahne, et al., 1985"
 17994-26-2,LLK, C,8.4,PE,"Bicyclo[2.2.1]hept-5-ene, 2,3-dione","Dougherty, Blankespoor, et al., 1979"
 539-80-0,LBLHLM, C,8.88 ¡À 0.05,TRPI,"2,4,6-Cycloheptatrien-1-one","Ziesel, Malinovich, et al., 1987"
 37739-99-4,Vertical value, C,8.25,PE,"1H-Phosphole,1,3,4-trimethyl-","Schafer, Schweig, et al., 1976"
 30967-37-4,LLK, C,6.84,PI,2-Norbornyl radical,"Houle and Beauchamp, 1979"
 100-52-7,LBLHLM, C,~9.35,PE,Benzaldehyde,"Klasinc, Kovac, et al., 1983"
 4037-12-1,Vertical value, C,8.92,PE,"Phosphonic acid, (1,2-butadienyl-3-methyl), dimethyl ester","Zverev, Islamov, et al., 1991"
 33631-63-9,Vertical value, C,9.82 ¡À 0.05,PE,Mercuric chloride,"Baidin, Timoshenko, et al., 1985"
 68120-86-5,Vertical value, C,8.89,PE,"Phosphine oxide, dimethyl(3-methyl-1,2-butadienyl)-","Zverev, Islamov, et al., 1991"
 52849-30-6, , C,9.2,PE,"Phosphinic acid, diethenyl-, isopropyl ester","Zverev, Villem, et al., 1981"
 81044-79-3,Vertical value, C,8.3,PE,4-Methylbenzodithiete,"Breitenstein, Schulz, et al., 1982"
 13393-75-4,Vertical value, C,8.12,PE,"Thieno[2,3-b]thiophene,2-methyl-","Coustale, Guimon, et al., 1976"
 30216-44-5,LLK, C,8.5,EI,"Thiobenzamide, 2-bromo-","Grutzmacher, 1981"
 1723-34-8,Vertical value, C,8.04,PE,"Thieno[2,3-b]thiophene,3-methyl-","Coustale, Guimon, et al., 1976"
 80684-62-4,Vertical value, C,10.2,PE,N-Hydroxypentafluoro benzamide,"Petrachenko, Vovna, et al., 1992"
 3272-86-4, , C,6.8,PE,"Phosphorane, trimethyl[(trimethylsilyl)methylene]-","Schmidbaur and Vornberger, 1972"
 3607-04-3,Vertical value, C,6.56,PE,"Arsenic, trimethyl[(trimethylsilyl)methylene]-","Starzewski, Richter, et al., 1976"
 102925-59-7,Vertical value, C,7.62,PE,"Phosphine, bis(dimethylamino)-trimethylsilyl-p-oxide","Zverev, Vakar, et al., 1986"
 68146-10-1,Vertical value, C,7.33,PE,"Platinum, iodomethylbis(trimethylphosphine)-","Behan, Johnstone, et al., 1978"
 1849-39-4,, C,11.06 ¡À 0.03,EI,"Silane, triethynylmethyl-","MacLean and Sacher, 1974"
 52140-36-0,Vertical value, C,9.4,PE,"Beryllium,(¦Ç","Bohm, Gleiter, et al., 1980"
 92272-66-7, , C,9.4,PE,"2,9,10-Trioxa-6-aza-1-borabicyclo[4.3.3]dodecan-3-one","Peel, Rothwell, et al., 1987"
 67395-53-3,, C,7.65,EI,"Borane, bis(dimethylamino)(hexafluoropropanimino)-","Emerick, Komorowski, et al., 1980"
 274-76-0,Vertical value; , C,8.19,PE,"Imidazo[1,2-a]pyridine","Palmer, Leaver, et al., 1977"
 36252-44-5,, C,7.80 ¡À 0.05,EI,"Chromium, pentacarbonyl(1,3,2-dioxathiolane 2-oxide-s)-","Distefano, Foffani, et al., 1971"
 95-75-0,, C,8.85,PE,"Benzene, 1,2-dichloro-4-methyl-","Fujisawa, Oonishi, et al., 1992"
 619-80-7,Vertical value; , C,10.33,PE,"Benzamide, 4-nitro-","McAlduff, Lynch, et al., 1978"
 119-27-7,, C,9.3,PE,"Benzene, 1-methoxy-2,4-dinitro-","Dougherty, Younathan, et al., 1978"
 645-09-0,Vertical value; , C,10.28,PE,"Benzamide, 3-nitro-","McAlduff, Lynch, et al., 1978"
 25186-47-4,Vertical value, C,9.99 ¡À 0.02,PE,"Benzene, 1,3-dichloro-5-methyl-","Maier, Marthaler, et al., 1980"
 19398-61-9,LL, C,8.81,PE,"Benzene, 1,4-dichloro-2-methyl-","Fujisawa, Oonishi, et al., 1992"
 2357-55-3,Vertical value, C,8.74 ¡À 0.05,PE,4-Fluorobenzyl mercuric chloride,"Baidin, Timoshenko, et al., 1985"
 2237-30-1,RDSH, C,8.61 ¡À 0.05,EI,"Benzonitrile, m-amino-","Buchs, 1970"
 873-74-5,LLK, C,8.17,PE,"Benzonitrile, 4-amino-","Modelli and Distefano, 1981"
 15717-17-6,LLK, C,8.8,EI,2-Chlorothiobenzamide,"Grutzmacher, 1981"
 766-91-6,Vertical value; , C,7.72 ¡À 0.02,PE,Phenyldiazomethane,"Bastide, Maier, et al., 1976"
 271-63-6,LBLHLM, C,8.110 ¡À 0.001,PE,"1H-Pyrrolo[2,3-b]pyridine","Fuke, Yoshiuchi, et al., 1984"
 271-44-3,LLK, C,8.35,PE,1H-Indazole,"Kovac, Klasinc, et al., 1980"
 27701-90-2,Vertical value, C,8.35 ¡À 0.015,PE,"1-Azabicyclo[2.2.2]octane,4-iodo-","Bieri and Heilbronner, 1974"
 51-17-2,LLK, C,8,PE,1H-Benzimidazole,"Kovac, Klasinc, et al., 1980"
 618-48-4,Vertical value; , C,9.34,PE,3-Chlorobenzamide,"McAlduff, Lynch, et al., 1978"
 2596-93-2,, C,8.4 ¡À 0.1,EI,"Formamide, N-(2-chlorophenyl)-","Kuschel and Grutzmacher, 1974"
 619-56-7,Vertical value; , C,9.35,PE,"Benzamide, 4-chloro-","McAlduff, Lynch, et al., 1978"
 82608-90-0,Vertical value; , C,9.23,PE,"Benzenamine, 3-chloro-2-methyl-N-sulfinyl-, (Z)-","Louwen, Van Dam, et al., 1982"
 82608-88-6,LBLHLM, C,8.5,PE,"Benzenamine, 4-chloro-2-methyl-N-sulfinyl-, (Z)-","Louwen, Van Dam, et al., 1982"
 17501-04-1,, C,8.21 ¡À 0.12,EI,"Manganese, pentacarbonyl(chlorodimethylstannyl)-","Harris and Spalding, 1980"
 3327-51-3,RDSH, C,8.0 ¡À 0.1,EI,4-Chlorobenzyl radical,"Harrison, Kebarle, et al., 1961"
 2599-73-7,RDSH, C,8.18 ¡À 0.06,EI,3-Fluorobenzyl radical,"Harrison, Kebarle, et al., 1961"
 13271-69-7,Vertical value; , C,8.53,PE,Methyl ethyl 2-furyl silane,"Zykov, Erchak, et al., 1983"
 1578-33-2,LBLHLM, C,8.2,PE,2-Furyl trimethyl silane,"Veszpremi, Nyulaszi, et al., 1987"
 455-37-8,Vertical value; , C,9.6,PE,m-Fluorobenzamide,"Petrachenko, Vovna, et al., 1992"
 824-75-9,Vertical value; , C,9.5,PE,p-Fluorobenzamide,"McAlduff, Lynch, et al., 1978"
 445-28-3,Vertical value, C,9.6,PE,ortho-Fluorobenzamide,"Petrachenko, Vovna, et al., 1992"
 2194-09-4,RDSH, C,7.8 ¡À 0.1,EI,4-Fluorobenzyl radical,"Harrison, Kebarle, et al., 1961"
 456-07-5,Vertical value, C,9.63,PE,"Benzamide, 4-fluoro-","Petrachenko, Vovna, et al., 1992"
 62465-35-4,Vertical value, C,8.25,PE,"Manganese, tricarbonyl-¦Ç","Guimon, Pfister-Guillouzo, et al., 1979"
 40553-10-4, , C,8.4,PE,"z-2-Butenoic acid, 3-mercapto, propyl ester","Jorgensen, Carlsen, et al., 1980"
 61219-63-4,RDSH, C,8.6 ¡À 0.1,EI,3-Nitrobenzyl radical,"Harrison, Kebarle, et al., 1961"
 510-20-3,Vertical value, C,10.4,PE,"Propanedioic acid, diethyl-","Ajo, Ciliberto, et al., 1980"
 283-35-2,Vertical value, C,8.97,PE,"6,7-Dioxabicyclo[3.2.2]nonane","Coughlin, Brown, et al., 1979"
 68525-35-9,LBLHLM, C,8.5,PE,"7,8-Dioxabicyclo[4.2.1]nonane","Gleiter, Dobler, et al., 1984"
 7429-44-9,Vertical value, C,9.06,PE,2-Methoxycyclohexanone,"Brown, 1976"
 3142-58-3,Vertical value, C,9.3,PE,"3,3-Dimethyl-2,4-pentane dione","Schweig, Vermeer, et al., 1974"
 13984-50-4,, C,9.6 ¡À 0.2,EI,"Hexanoic acid, 5-oxo-, methyl ester","Howe, Williams, et al., 1969"
 27761-61-1, , C,9,PE,"2,6,7-Trioxabicyclo[2.2.2]octane, 1,4-dimethyl-","Cowley, Goodman, et al., 1977"
 6499-38-3,LBLHLM, C,8.8,PE,"2-Methylpyrazino[2,3-b]pyrazine","Gleiter, Spanget-Larsen, et al., 1984"
 589-92-4,LLK, C,9.16,PE,"Cyclohexanone, 4-methyl-","Loudet, Grimaud, et al., 1976"
 502-42-1,LLK, C,9.49 ¡À 0.01,PE,Cycloheptanone,"Cocksey, Eland, et al., 1971"
 583-60-8,LLK, C,9.05,PE,"Cyclohexanone, 2-methyl-","Loudet, Grimaud, et al., 1976"
 3240-09-3,Vertical value, C,9.4,PE,"5-Hexen-2-one, 5-methyl-","Schweig, Vermeer, et al., 1974"
 2043-61-0,LBLHLM, C,9.6,EI,Cyclohexanecarboxaldehyde,"Splitter and Calvin, 1982"
 15766-93-5,Vertical value, C,9.01 ¡À 0.03,PE,"Cyclohexene,4-methoxy-","Neijzen, Schmitz, et al., 1975"
 79014-75-8,Vertical value, C,8.13,PE,"Hydrazine, N,N-dimethyl-N'-dimethylboryl-N'-trimethylsilyl-","Fussstetter and Noth, 1981"
 35295-57-9,, C,9.00 ¡À 0.02,PE,"Cyclopropane, trans-1,2-diethynyl-","Brogli, Heilbronner, et al., 1975"
 72323-66-1, , C,8.9,PE,"Cyclopropane, 1,1-diethynyl-","Eckert-Maksie, Gleiter, et al., 1991"
 27041-32-3,RDSH, C,8.88,EI,"1,3-Cyclopentadiene, 5-ethenylidene-","Mamer, Lossing, et al., 1970"
 35295-58-0,Vertical value, C,8.41,PE,"Bicyclo[3.2.0]hepta-1,4,6-triene","Muller, Schweig, et al., 1979"
 4646-69-9,Vertical value; , C,8.82,PE,"Bicyclo[4.1.0]hepta-1,3,5-triene","Lecoultre, Heilbronner, et al., 1988"
 31172-83-5,Vertical value, C,7.59,PE,"Chromium, pentacarbonyl-(dimethylsulfide)-","Weiner and Lattman, 1978"
 36083-80-4,, C,7.64 ¡À 0.05,EI,"Chromium, pentacarbonyl[sulfinylbis[methane]-s]-","Distefano, Foffani, et al., 1971"
 591-47-9,LLK, C,8.91 ¡À 0.01,PE,"Cyclohexene, 4-methyl-","Rang, Paldoia, et al., 1974"
 20479-71-4,Vertical value, C,8.61,PE,"Cyclopropane, 1-methyl-1-(1-propenyl)-, (E)","Plemenkov, Zverev, et al., 1989"
 591-49-1,LLK, C,8.67 ¡À 0.02,PE,"Cyclohexene, 1-methyl-","Rang, Paldoia, et al., 1974"
 59502-33-9,, C,8.90 ¡À 0.02,PE,"Cyclopropane,cis-1,2-diethynyl-","Brogli, Heilbronner, et al., 1975"
 53246-08-5,Vertical value, C,7.05,PE,"1,2,4,3,5-Triazadiborolidine-3,5-diamine,N,N,N',N',1,2,4-heptamethyl-","Kroner, Nolle, et al., 1975"
 67280-25-5,Vertical value, C,9.55,PE,"4,6-Cycloheptadiene-1,2,3-trione","Gleiter, Dobler, et al., 1982"
 12287-44-4,Vertical value, C,8.66,PE,"Iron, tetracarbonyl[(2,3-¦Ç","Van Dam and Oskam, 1979"
 56561-57-0, , C,9.53,PE,"3,6-Cycloheptadiene-1,2,5-trione","Gleiter, Dobler, et al., 1982"
 7735-53-7, , C,8.5,PE,"1,3-Benzoxathiol-2-one","Schulz and Schweig, 1981"
 12306-67-1, , C,7.8,PE,"Ruthenium, ¦Ç","Worley, Webb, et al., 1982"
 21083-36-3, , C,8.1,PE,"7-Thiabicyclo[4.2.0]octa-1,3,5-trien-8-one","Schulz and Schweig, 1979"
 21083-33-0, , C,8,PE,"2,4-Cyclohexadien-1-one, 6-carbonyl-","Schulz and Schweig, 1979"
 62576-04-9,Vertical value, C,8.68,PE,"1,3-Benzodithiol-2-one","Breitenstein, Schulz, et al., 1982"
 401-78-5,Vertical value, C,9.36,PE,"Benzene, 1-bromo-3-(trifluoromethyl)-","Gounelle, Jullien, et al., 1975"
 392-83-6,Vertical value, C,9.38,PE,"Benzene, 1-bromo-2-(trifluoromethyl)-","Gounelle, Jullien, et al., 1975"
 12287-43-3,Vertical value, C,8.69,PE,"Iron, tetracarbonyl[(2,3-¦Ç","Van Dam and Oskam, 1979"
 402-43-7,Vertical value; , C,9.48,PE,"Benzene, 1-bromo-4-(trifluoromethyl)-","Gounelle, Jullien, et al., 1975"
 12078-17-0,LLK, C,7.65 ¡À 0.02,PE,"Iron, tricarbonyl(¦Ç4-1,3-cyclobutadiene)-","Hall, Hillier, et al., 1975"
 623-00-7, , C,9.90 ¡À 0.05,EI,"Benzonitrile, 4-bromo-","Buchs, 1970"
 2181-19-3,Vertical value, C,8.46 ¡À 0.015,PE,4-Bromo-1-azabicyclo[2.2.2]octane,"Bieri and Heilbronner, 1974"