CAS,Comment,Formula,IE,Method,Name,Refer
 13177-77-0,Vertical value, C,10.37,PE,"Pyrazine,tetrafluoro-","Van den Ham, Van der Meer, et al., 1974"
 767-79-3,Vertical value, C,10.82,PE,"Pyrimidine,tetrafluoro-","Van den Ham, Van der Meer, et al., 1974"
 2351-34-0,Vertical value, C,9.95,PE,"Silacyclobutane,1-chloro-1-methyl-","Cundy, Lappert, et al., 1973"
 38442-51-2,Vertical value; , C,9.52 ¡À 0.05,PE,Tert-butylmercuric chloride,"Baidin, Timoshenko, et al., 1985"
 75192-38-0, , C,9.6,PE,"1-Phosphaethyne, 2-(trimethylsilyl)-","Solouki, Bock, et al., 1982"
 29149-32-4,LLK, C,9.2,PE,Tert-butyldifluorophosphine,"Lappert, Pedley, et al., 1975"
 21907-59-5, , C,10,PE,Trimethyl(trifluoromethyl)germane,"Drake, Eujen, et al., 1982"
 543-63-5,LL, C,9.7 ¡À 0.2,PI,n-Butyl mercury chloride,"Nekrasov, Zagorevskii, et al., 1992"
 38455-12-8,LLK, C,9.5,PE,Sec-butylmercuric chloride,"Baidin, Chizhov, et al., 1981"
 27151-74-2,Vertical value; , C,10.04 ¡À 0.05,PE,Isobutylmercuric chloride,"Baidin, Timoshenko, et al., 1985"
 31053-08-4,, C,9.0 ¡À 0.1,EI,"1,3,2-Diazaphosphetidin-4-one,2,2-difluoro-2,2-dihydro-1,2,3-trimethyl-","Baldwin, Loudon, et al., 1977"
 507-20-0,LL, C,10.58,EST,"Propane, 2-chloro-2-methyl-","Luo and Pacey, 1992"
 513-36-0,LL, C,10.62,EST,"Propane, 1-chloro-2-methyl-","Luo and Pacey, 1992"
 78-86-4,LL, C,10.59,EST,"Butane, 2-chloro-","Luo and Pacey, 1992"
 109-69-3,LL, C,10.63,EST,"Butane, 1-chloro-","Luo and Pacey, 1992"
 25979-07-1,LLK, C,9,PE,t-Butyldichlorophosphine,"Lappert, Pedley, et al., 1975"
 507-40-4,Vertical value; , C,9.91 ¡À 0.02,PE,tert-Butyl hypochlorite,"Colbourne, Frost, et al., 1981"
 13274-84-5,, C,10.19,PE,"Phosphinic acid, bis(chloromethyl),- ethyl ester","Zverev, Vilesov, et al., 1975"
 692-50-2,, C,12.35 ¡À 0.01,PE,"2-Butyne, 1,1,1,4,4,4-hexafluoro-","Delwiche, Praet, et al., 1977"
 360-91-8,LBLHLM, C,9.6,PE,"3,4-Bis(trifluoromethyl)-1,2-dithiete","Schulz, Schweig, et al., 1983"
 685-63-2,RDSH, C,~9.5,PE,"1,3-Butadiene, 1,1,2,3,4,4-hexafluoro-","Brundle and Robin, 1970"
 699-35-4,LBLHLM, C,10.7,PE,Hexafluorocyclobutanone,"Gleiter, Schang, et al., 1985"
 7445-60-5,LBLHLM, C,9.4,PE,Bis(trifluoromethyl)thioketene,"Gleiter, Saalfrank, et al., 1983"
 684-22-0,Vertical value, C,10.67,PE,"3,3,3-Trifluoropropenone, 2-(trifluoromethyl)-","Gleiter, Saalfrank, et al., 1983"
 1516-65-0,Vertical value, C,11.46,PE,"Perfluoro-2-butene, (Z)-","Robin, Taylor, et al., 1973"
 360-89-4,, C,11.25,PE,Octafluoro-2-butene,"Dewar and Worley, 1969"
 1516-64-9,Vertical value; , C,11.55,PE,(E)-2-C4F8,"Robin, Taylor, et al., 1973"
 16966-40-8,Vertical value, C,8.83,PE,"Silane, isoselenocyanatotrimethyl-","Veszpremi, Pasinszki, et al., 1991"
 13686-33-4,, C,9.4,PE,Tert-butyl azide,"Bock and Dammel, 1988"
 2290-65-5,Vertical value; , C,9.26,PE,Trimethylsilyl isothiocyanate,"Veszpremi, Pasinszki, et al., 1991"
 2714-60-5,Vertical value, C,10.71,PE,"Diphosphine, tetrakis(trifluoromethyl)-","Cowley, Dewar, et al., 1974"
 4645-32-3,Vertical value, C,10.94,PE,dimethyl vinylphosphonate,"Zverev, Villem, et al., 1978"
 31121-06-9,LLK, C,8.7 ¡À 0.1,PE,"1,3,2-Dioxaphosphorinane,2-methoxy-","Hodges, Houle, et al., 1980"
 695-11-4,Vertical value, C,9.57,PE,"Phosphorous acid, cyclic ethylene ethyl ester","Worley, Hargis, et al., 1982"
 72-19-5,Vertical value; , C,¡Ü10.2,PE,Threonine,"Cannington and Ham, 1983"
 1187-84-4,LBLHLM, C,8.4,PE,S-Methyl-L-cysteine,"Cannington and Ham, 1983"
 627-05-4,RDSH, C,10.71 ¡À 0.01,PE,"Butane, 1-nitro-","Dewar, Shanshal, et al., 1969"
 56-12-2, , C,8.7,PE,4-Aminobutanoic acid,"Cannington and Ham, 1983"
 600-24-8,RDSH, C,10.71 ¡À 0.01,PE,"Butane, 2-nitro-","Dewar, Shanshal, et al., 1969"
 80-60-4,, C,8.7,PE,dl-2-Aminobutyric acid,"Klasinc, 1976"
 459-73-4,LLK, C,8.8,PE,"Glycine, ethyl ester","Debies and Rabalais, 1974"
 3735-92-0, , C,8.01 ¡À 0.03,PE,"Carbamodithioic acid, dimethyl-, methyl ester","Guimon, Pfister-Guillouzo, et al., 1974"
 110-91-8,Vertical value; , C,8.88 ¡À 0.05,PE,Morpholine,"Domelsmith and Houk, 1977"
 127-19-5,LLK, C,9.20 ¡À 0.05,EI,"N,N-Dimethylacetamide","Baldwin, Loudon, et al., 1977"
 22445-44-9,Vertical value, C,8.6,PE,"Isoxazolidine,2-methyl-","Rademacher and Freckmann, 1978"
 36652-42-3,Vertical value, C,9,PE,"1,2-Oxazinane","Rademacher and Freckmann, 1978"
 625-50-3,Vertical value; , C,8.71,PE,"Acetamide, N-ethyl-","Jones, Modelli, et al., 1994"
 1118-02-1,Vertical value; , C,10.5,PE,"Silane, isocyanatotrimethyl-","Veszpremi, Pasinszki, et al., 1991"
 110-69-0, , C,9.5,PE,"Butanal, oxime","Dargelos and Sandorfy, 1977"
 38662-39-4,LLK, C,10,PE,(Ch3)3cnso,"Kroner, Strack, et al., 1973"
 393-02-2,LL, C,9.5,PE,"Cyclobutaphosphane, tetrakis(trifluoromethyl)-","Elbel, Egsgaard, et al., 1988"
 917-95-3,Vertical value; , C,9.05 ¡À 0.05,PE,"Nitrosoethane, 1,1-dimethyl-","Ernsting, Pfab, et al., 1980"
 3376-35-0,LBLHLM, C,9.16,PE,"2-Propanone, O-methyloxime","Stunnenberg and Cerfontain, 1987"
 631-67-4,LLK, C,7.86,PE,"Ethanethioamide, N,N-dimethyl-","Mines and Thompson, 1975"
 542-69-8,LL, C,9.23,EST,"Butane, 1-iodo-","Luo and Pacey, 1992"
 558-17-8,LL, C,8.98,EST,tert-Butyl iodide,"Luo and Pacey, 1992"
 513-48-4,LL, C,9.1,EST,"Butane, 2-iodo-","Luo and Pacey, 1992"
 513-38-2,LL, C,9.23,EST,"Propane, 1-iodo-2-methyl-","Luo and Pacey, 1992"
 19062-98-7,RDSH, C,9.22 ¡À 0.05,EI,n-Butoxy radical,"Williams and Hamill, 1968"
 123-75-1,RDSH, C,8.41,PE,Pyrrolidine,"Al-Joboury and Turner, 1964"
 2658-24-4,LLK, C,8.94,PE,"Aziridine, 2,2-dimethyl-","Yoshikawa, Hashimoto, et al., 1974"
 1190-79-0,LLK, C,8.8,PE,"Ethanamine, N-ethylidene","Aue and Bowers, 1979"
 2516-34-9,, C,8.60 ¡À 0.03,PI,Cyclobutylamine,"Bouchoux, Alcaraz, et al., 1994"
 6407-34-7, , C,8.7,PE,"2-Propanamine, N-methyl-","Bock and Dammel, 1988"
 55642-43-8, , C,12,PE,Tetrakis(trifluoromethyl)germane,"Drake, Eujen, et al., 1982"
 13652-14-7,Vertical value, C,8.68,PE,"Arsine, dimethylvinyl-","Schmidt, Schweig, et al., 1977"
 4630-45-9,LBLHLM, C,7.93 ¡À 0.03,PE,Isobutyl radical,"Schultz, Houle, et al., 1984"
 2348-55-2,LBLHLM, C,7.25 ¡À 0.02,PE,2-Butyl radical,"Schultz, Houle, et al., 1984"
 21494-31-5,, C,7.66 ¡À 0.05,EI,Trimethylphosphite(p) iron carbonyl dinitrosyl,"Distefano, Innorta, et al., 1968"
 663-45-6,LBLHLM, C,10.1,PE,"3,3,4,4-Tetrafluorocyclobutane-1,2-dione","Gleiter, Schang, et al., 1985"
 592-55-2, , C,9.5,PE,"Ethane, 1-bromo-2-ethoxy-","Ohno, Imai, et al., 1985"
 669-78-3,LLK, C,11.45,PE,"2,5-Furandione, difluoro-","Asbrink, Svensson, et al., 1981"
 109-65-9,LL, C,10.11,EST,"Butane, 1-bromo-","Luo and Pacey, 1992"
 507-19-7,LL, C,9.95,EST,"Propane, 2-bromo-2-methyl-","Luo and Pacey, 1992"
 78-76-2,LL, C,10.03,EST,"Butane, 2-bromo-","Luo and Pacey, 1992"
 78-77-3,LL, C,10.11,EST,"Propane, 1-bromo-2-methyl-","Luo and Pacey, 1992"
 2492-36-6,LBLHLM, C,8.02 ¡À 0.04,PE,1-Butyl radical,"Schultz, Houle, et al., 1984"
 1605-73-8,LLK, C,6.70 ¡À 0.03,PE,Tert-butyl radical,"Houle and Beauchamp, 1979"
 2252-95-1,Vertical value, C,9.3,PE,"1,2,3-Butatriene, 1,1,4,4-tetrafluoro-","Basch, Bieri, et al., 1978"
 15693-79-5,, C,9.7 ¡À 0.1,EI,Trifluorosilylcobalt tetracarbonyl,"Saalfeld, McDowell, et al., 1968"
 20420-07-9, , C,8.8,PE,2-Buten-1-yl-dichlorophosphine,"Zverev, Villem, et al., 1981"
 62-73-7,Vertical value, C,9.4,PE,Dichlorvos,"Betteridge, Thompson, et al., 1972"
 5587-61-1,Vertical value, C,11.08,PE,"Silane, triisocyanotomethyl-","Veszpremi, Pasinszki, et al., 1991"
 15429-04-6,LBLHLM, C,9.455,PE,2-Nitroselenophene,"Reineck, Nohre, et al., 1983"
 822-84-4, , C,9.62,PE,3-nitrothiophene,"Bajic, Humski, et al., 1985"
 609-40-5,LBLHLM, C,9.57,PE,"Thiophene, 2-nitro-","Bajic, Humski, et al., 1985"
 6145-43-3,, C,8.15 ¡À 0.05,EI,"N,N',N''-trimethylguanidine","Loudon, Maccoll, et al., 1968"
 13328-30-8,Vertical value, C,8.81,PE,"Silanediamine, 1,1-dichloro-N,N,N',N'-tetramethyl-","Green, Lappert, et al., 1971"
 98391-02-7,, C,9.0 ¡À 0.2,PI,"9-Vinyl-1,2-dicarbadodecaborane","Orlov, Pustobaev, et al., 1988"
 106898-30-0,, C,9.9 ¡À 0.2,PI,"1-Vinyl-1,2-dicarbadodecaborane","Orlov, Pustobaev, et al., 1988"
 72099-02-6,, C,9.1 ¡À 0.2,PI,"9-Vinyl-1,7-dicarbadodecaborane","Orlov, Pustobaev, et al., 1988"
 139254-91-4,Vertical value, C,9.5,PE,Tri(isoselenocyanato)methyl silane,"Veszpremi, Pasinszki, et al., 1991"
 10584-95-9,Vertical value, C,9.75,PE,"Silane, triisothiocyanatomethyl-","Veszpremi, Pasinszki, et al., 1991"
 108-01-0,Vertical value; , C,8.8,PE,"N,N-Dimethylaminoethanol","Ohno, Imai, et al., 1985"
 609-39-2,LLK, C,10.04 ¡À 0.05,EI,2-Nitrofuran,"Linda, Marino, et al., 1971"
 5242-57-9,, C,10.25,EI,5-Isothiazolecarboxaldehyde,"Salmona, Ferre, et al., 1971"
 10489-99-3,Vertical value, C,8.86,PE,"Ethanol, 2-(dimethylamino)-, N-oxide","Wieczorek, Koenig, et al., 1975"
 5332-73-0,Vertical value, C,9.37 ¡À 0.12,PE,"1-Propanamine, 3-methoxy-","Leavell, Steichen, et al., 1973"
 31081-41-1,, C,8.06 ¡À 0.05,EI,"N,N,N'-Trimethylguanidine","Loudon, Maccoll, et al., 1968"
 627-49-6,LLK, C,8.69,PE,"Phosphine, diethyl-","Cullen, Frost, et al., 1972"
 2501-94-2,LLK, C,8.9,PE,"Phosphine, (1,1-dimethylethyl)-","Lappert, Pedley, et al., 1975"
 1605-65-8,LLK, C,8.61,PE,Bis(dimethylamino)phosphinic chloride,"Zverev, Vilesov, et al., 1975"
 14580-91-7,Vertical value, C,6.81,PE,"Phosphorane, trimethylmethylene-","Starzewski and Dieck, 1979"
 1001-56-5,LLK, C,10.1,PE,Cyanoallene,"Kroner, Kosbahn, et al., 1977"
 3348-44-5,LLK, C,7.6,PE,"Phosphorodiamidous chloride, tetramethyl-","Lappert, Pedley, et al., 1975"
 3732-81-8, , C,8.23 ¡À 0.02,PE,"Phosphorodiamidothioic chloride, tetramethyl-","Vilesov, Lopatin, et al., 1974"
 109-73-9,LLK, C,8.7,PE,1-Butanamine,"Aue and Bowers, 1979"
 75-64-9,LLK, C,8.5 ¡À 0.1,PE,"2-Propanamine, 2-methyl-","Aue, Webb, et al., 1976"
 109-89-7,LLK, C,7.9 ¡À 0.1,PE,"Ethanamine, N-ethyl-","Aue, Webb, et al., 1976"
 78-81-9,LLK, C,8.5 ¡À 0.1,PE,Isobutylamine,"Aue, Webb, et al., 1976"
 13952-84-6,LLK, C,8.5 ¡À 0.1,PE,sec-Butylamine,"Aue, Webb, et al., 1976"
 13752-78-8,LLK, C,10.78 ¡À 0.02,PE,CH3C¡ÔCCN,"Bieri, Heilbronner, et al., 1979"
 598-56-1,LLK, C,7.74 ¡À 0.03,PI,"Ethanamine, N,N-dimethyl-","Loguinov, Takhistov, et al., 1981"
 57-15-8,, C,10.38,PE,"2-Propanol, 1,1,1-trichloro-2-methyl-","Koppel, Molder, et al., 1983"
 21134-96-3,Vertical value; , C,9.35,PE,"1,2,4-Triazine, 6-methyl-","Gleiter, Kobayashi, et al., 1977"
 24108-33-6,LLK, C,8.6,PE,"1,2,4-Triazine, 3-methyl-","Gleiter, Kobayashi, et al., 1977"
 77202-08-5,Vertical value; , C,9.7,PE,"1,2,3-Triazine, 4-methyl-","Gleiter, Spanget-Larsen, et al., 1983"
 21134-95-2,Vertical value; , C,9.31,PE,"1,2,4-Triazine, 5-methyl-","Gleiter, Kobayashi, et al., 1977"
 71-30-7,LLK, C,8.45,PE,Cytosine,"Dougherty, Younathan, et al., 1978"
 5685-07-4,Vertical value, C,7.68 ¡À 0.03,PE,"2(3H)-Thiazolethione,3-methyl-","Guimon, Pfister-Guillouzo, et al., 1974"
 693-92-5,, C,9.6,EI,"Isothiazole, 3-methyl-","Salmona, Ferre, et al., 1971"
 86402-30-4,LBLHLM, C,9.1,PE,"1,2,3-Triazine, 5-methyl-","Gleiter, Spanget-Larsen, et al., 1983"
 693-97-0,, C,9.65,EI,"Isothiazole, 5-methyl-","Salmona, Ferre, et al., 1971"
 693-90-3,, C,9.25,PE,"Isothiazole, 4-methyl-","Salmona, Ferre, et al., 1971"
 109-75-1,LLK, C,10.22,PE,3-Butenenitrile,"Willett and Baer, 1980"
 627-26-9,Vertical value; , C,10.23 ¡À 0.05,PE,but-2(E)-enenitrile,"Houk and Munchausen, 1976"
 5500-21-0,LLK, C,10.25,PE,Cyclopropanecarbonitrile,"Willett and Baer, 1980"
 109-97-7,LBLHLM, C,8.02,PE,Pyrrole,"Klasinc, Sabljic, et al., 1982"
 993-46-4,Vertical value, C,8.37 ¡À 0.05,PE,"Stannane, trimethyl(methylthio)-","Distefano, Ricci, et al., 1974"
 66333-88-8, , C,9,PE,"Oxazole, 4-methyl-","Kobayashi, Kubota, et al., 1982"
 105-34-0,RDSH, C,10.87 ¡À 0.05,EI,"Acetic acid, cyano-, methyl ester","Pignataro, Foffani, et al., 1966"
 123-56-8,Vertical value; , C,10.01,PE,Succinimide,"Worley, Gerson, et al., 1978"
 5765-44-6,Vertical value, C,9.61,PE,"Isoxazole, 5-methyl-","Kobayashi, Kubota, et al., 1982"
 18165-76-9,LBLHLM, C,8.8,PE,"Methanethiol, trimethylsilyl-","Ermakov, Kirichenko, et al., 1987"
 3908-55-2,LLK, C,8.4,PE,Trimethylsilyl methyl sulfide,"Distefano, Ricci, et al., 1974"
 126-98-7,LLK, C,10.34,PE,Methylacrylonitrile,"Willett and Baer, 1980"
 471-35-2,Vertical value, C,7.91,PE,tetramethyldiarsine,"Cowley, Dewar, et al., 1974"
 865-52-1,LLK, C,9.56 ¡À 0.06,EI,"Germane, tetramethyl-","MacLean and Sacher, 1974"
 17249-78-4,, C,8.89,PE,"2,3,4-Trichlorothiophene","Veszpremi, Nyulaszi, et al., 1988"
 18165-85-0,, C,9.5 ¡À 0.2,EI,Tert-butylsilane,"Steele, Nichols, et al., 1962"
 542-91-6,LLK, C,9.8,PE,Diethylsilane,"Potzinger, Ritter, et al., 1975"
 75-76-3,LLK, C,9.80 ¡À 0.03,PI,"Silane, tetramethyl-","Murphy and Beauchamp, 1977"
 17249-77-3,, C,8.71,PE,"Thiophene, 2,3,5-trichloro-","Veszpremi, Nyulaszi, et al., 1988"
 1631-46-5,Vertical value, C,9.8,PE,"Germane, diethyl-","Beltram, Fehlner, et al., 1980"
 3676-91-3,LLK, C,7.5,PE,tetramethyldiphosphine,"Schweig, Thon, et al., 1979"
 3860-84-2,Vertical value, C,8.50 ¡À 0.05,PE,"Germane, trimethyl(methylthio)-","Distefano, Ricci, et al., 1974"
 3768-60-3,Vertical value, C,8.53,PE,sulphinylbis(dimethylamide),"Bock and Solouki, 1974"
 928-05-2,LLK, C,7.2,PE,(CH3)2NSSN(CH3)2,"Bock, Schulz, et al., 1981"
 616-40-0,LLK, C,7.96 ¡À 0.05,PE,"Hydrazine, 1,1-diethyl-","Vovna, Vilesov, et al., 1975"
 3732-86-3,LLK, C,8.60 ¡À 0.05,EI,"N,N,N',N'-Tetramethylphosphorotriamide","Baldwin, Loudon, et al., 1977"
 16853-36-4,, C,8.75 ¡À 0.05,EI,"Phosphoric triamide, N,N,N',N""-tetramethyl-","Baldwin, Loudon, et al., 1977"
 6415-12-9,LBLHLM, C,6.87 ¡À 0.05,EQ,Tetramethylhydrazine,"Rumack, 1986"
 20217-54-3,LBLHLM, C,8.1,PE,"Phosphoramidous acid, dimethyl-, dimethyl ester","Worley, Hargis, et al., 1982"
 32064-67-8,Vertical value, C,8.92,PE,"Hydrazine, (1,1-dimethylethyl)-","Nelsen and Buschek, 1974"
 3530-11-8,Vertical value, C,9.04,PE,"Hydrazine, butyl-","Nelsen and Buschek, 1974"
 1615-80-1,Vertical value, C,8.81,PE,"Hydrazine, 1,2-diethyl-","Rademacher, 1975"
 42437-75-2,Vertical value, C,7.67,PE,"Phosphine imide, tetramethyl-","Starzewski and Dieck, 1979"
 14326-59-1,Vertical value, C,8.13 ¡À 0.05,PE,"Plumbane, trimethyl(methylthio)-","Distefano, Ricci, et al., 1974"
 75-74-1,LLK, C,8.50 ¡À 0.04,PE,"Lead, tetramethyl-","Jonas, Schweitzer, et al., 1973"
 594-27-4,LLK, C,8.93 ¡À 0.04,PE,"Stannane, tetramethyl-","Jonas, Schweitzer, et al., 1973"
 1743-13-1,Vertical value, C,11.05,PE,"octahydro[1,2,4,5]tetrazino[1,2-a][1,2,4,5]tetrazine","Rademacher, 1975"
 6130-87-6,LLK, C,7,PE,"2-Tetrazene, 1,1,4,4-tetramethyl-","Bischof, Gleiter, et al., 1975"
 32407-79-7,LBLHLM, C,7.7,PE,"Gold, methyl-trimethylphosphine-","Bancroft, Chan, et al., 1982"
 30004-14-9,LLK, C,8.9,EI,"1,3,5,2,4,6-Triazatriphosphorine,2,4-bis(dimethylamino)-2,4,6,6-tetrafluoro-2,2,4,4,6,6-hexahydro-","Clare and Sowerby, 1981"
 1735-83-7, , C,8.8,PE,"Phosphoranediamine, 1,1,1-trifluoro-N,N,N',N'-tetramethyl-","Baldwin, Loudon, et al., 1977"
 383-90-4,, C,8.04,PE,"Boranediamine, 1-fluoro-N,N,N',N'-tetramethyl-","Bock and Fuss, 1971"
 7318-71-0,RDSH, C,7.97,EI,"Boranediamine, 1-iodo-N,N,N',N'-tetramethyl-","Lappert, Litzow, et al., 1970"
 59585-02-3,Vertical value, C,9.38,PE,"Aluminum, di-¦Ì-iodotetramethyldi-","Lappert, Pedley, et al., 1976"
 73775-17-4,Vertical value, C,9.34,PE,"Hydrazine, 1,2-bis(fluoro(methyl)boryl)-1,2-dimethyl-","Barlos and Noth, 1980"
 1113-30-0,LLK, C,8.92,PE,"Boranamine, N,N,1,1-tetramethyl-","Bock and Fuss, 1971"
 12073-96-0,Vertical value, C,10.09,PE,"Aluminum, dichlorotetramethyldi-","Lappert, Pedley, et al., 1976"
 15218-96-9,Vertical value, C,9.68,PE,"Aluminum, di-¦Ì-bromotetramethyldi-","Lappert, Pedley, et al., 1976"
 1112-39-6,Vertical value, C,10.04,PE,"Silane, dimethoxydimethyl-","Zverev, Vakar, et al., 1986"
 73775-15-2,Vertical value, C,9.58,PE,"Hydrazine, 1,2-bis(bromo(methyl)boryl)-1,2-dimethyl-","Barlos and Noth, 1980"
 1735-82-6,Vertical value, C,8.18,PE,"Phosphorodiamidous fluoride, tetramethyl-","Cowley, Dewar, et al., 1973"
 6562-41-0,LLK, C,8.08,PE,"Boranediamine, 1-chloro-N,N,N',N'-tetramethyl-","Bock and Fuss, 1971"
 30817-94-8, , C,8.8,PE,"Methanethiol, trimethoxysilyl-","Ermakov, Kirichenko, et al., 1987"
 6990-27-8,LLK, C,8.13,PE,"Boranediamine, 1-bromo-N,N,N',N'-tetramethyl-","Bock and Fuss, 1971"
 40392-37-8,Vertical value, C,8,PE,"1,3,4,2,5-Thiadiazadiborolidine,2,3,4,5-tetramethyl-","Kroner, Nolle, et al., 1975"
 129575-55-9,, C,8.8 ¡À 0.1,EI,"1,3-Cyclodisiloxane, tetramethoxy-","Tamas, Gomory, et al., 1990"
 53022-70-1,Vertical value, C,8.86 ¡À 0.05,PE,"Rhenium, tetramethyloxo-","Green, Lloyd, et al., 1978"
 40392-38-9,Vertical value, C,7.88,PE,"1,3,4,2,5-Oxadiazadiborolidine,2,3,4,5-tetramethyl-","Kroner, Nolle, et al., 1975"
 57877-89-1,Vertical value, C,8.39,PE,"1,2,4,3,5-Oxadiazadiborolidine,2,3,4,5-tetramethyl-","Kroner, Nolle, et al., 1975"
 54196-15-5,Vertical value, C,7.61,PE,"1,2,4,5,3,6-Tetrazadiborine,3,6-dichlorohexahydro-1,2,4,5-tetramethyl-","Kroner, Nolle, et al., 1974"
 73775-16-3,Vertical value, C,9.48,PE,"Hydrazine, 1,2-bis(chloro(methyl)boryl)-1,2-dimethyl-","Barlos and Noth, 1980"
 1825-61-2,LBLHLM, C,9.61,PE,"Methanol, TMS derivative","Molder, Pikver, et al., 1983"
 38151-26-7,Vertical value, C,7.55,PE,"1,3,2-Diazaborolidine,1,3-dimethyl-","Kroner, Noth, et al., 1974"
 23835-31-6,, C,9.77,PI,"1,2-Dicarbadodecaborane(12), 1-ethyl-","Orlov, Pustobaev, et al., 1989"
 5926-26-1,Vertical value, C,10.63,PE,"Silane, chloromethyl-trimethoxy-","Zykov, Khvostenko, et al., 1981"
 2344-80-1,Vertical value, C,10.24,PE,"Silane, (chloromethyl)trimethyl-","Zykov, Khvostenko, et al., 1981"
 298-06-6, , C,8.3,PE,"Phosphorodithioic acid, O,O-diethyl ester","Chattorpadhyay, Findley, et al., 1981"
 5162-44-7,, C,9.9,EI,"1-Butene, 4-bromo-","Tomer, Turk, et al., 1972"
 28360-37-4,Vertical value, C,8.80 ¡À 0.02,PE,"Cobalt, tetracarbonylgermyl-","Cradock, Ebsworth, et al., 1973"
 14652-62-1,Vertical value, C,8.85 ¡À 0.02,PE,"Cobalt, tetracarbonylsilyl-","Cradock, Ebsworth, et al., 1973"
 762-04-9,LLK, C,10.31,PE,Diethyl phosphite,"Zverev and Villem, 1980"
 56905-18-1,LBLHLM, C,9.1,PE,Methyl-2-iodopropionate,"Burgers, Holmes, et al., 1983"
 66348-19-4, , C,11.1,PE,Methyltris(trifluoromethyl)germane,"Drake, Eujen, et al., 1982"
 400-13-5,Vertical value, C,13.8,DER,2-Fluorothiophene,"Baker, Betteridge, et al., 1970"
 280-45-5,LLK, C,9.4 ¡À 0.1,PE,"2,6,7-Trioxa-1-phosphabicyclo[2.2.2]octane","Hodges, Houle, et al., 1980"
 5857-37-4,Vertical value, C,8.96,PE,Chloro(2-furyl)mercury,"Colonna, Distefano, et al., 1979"
 5857-38-5,Vertical value, C,9.1,PE,"Mercury, chloro-3-furanyl-","Colonna, Distefano, et al., 1979"
 36811-14-0,Vertical value; , C,8.33,PE,"1H-1,2,3-Triazole, 1-methyl-4-methylthio-","Guimon, Pfister-Guillouzo, et al., 1983"
 34618-67-2,Vertical value, C,7.25,PE,"1H-1,2,3-Triazolium, 4-mercapto-1,3-dimethyl-, hydroxide, inner salt","Guimon, Pfister-Guillouzo, et al., 1978"
 35262-23-8,Vertical value; , C,8.65,EI,"1H-1,2,3-Triazole, 1-methyl-5-methylthio-","Guimon, Pfister-Guillouzo, et al., 1983"
 64808-28-2,LBLHLM, C,7.4,PE,"4H-1,2,3-Triazole-4-thione, 2,3-dihydro-2,3-dimethyl-","Guimon, Pfister-Guillouzo, et al., 1983"
 54770-19-3,Vertical value, C,8.69,PE,"3H-1,2,4-Triazol-3-one,2,4-dihydro-4,5-dimethyl-","Guimon, Pfister-Guillouzo, et al., 1975"
 4114-21-0,Vertical value, C,8.62,PE,"3H-1,2,4-Triazol-3-one,2,4-dihydro-2,5-dimethyl-","Guimon, Pfister-Guillouzo, et al., 1975"
 5857-39-6,Vertical value, C,9.05,PE,"Mercury, chloro-2-thienyl-","Colonna, Distefano, et al., 1979"
 73057-79-1,Vertical value, C,9.23,PE,"Mercury, chloro-3-thienyl-","Colonna, Distefano, et al., 1979"
 78-82-0,LBLHLM, C,11.3,PE,Isobutyronitrile,"Ohno, Matumoto, et al., 1984"
 109-74-0,LBLHLM, C,11.2,PE,Butanenitrile,"Ohno, Matumoto, et al., 1984"
 5628-99-9,LLK, C,8.2,PE,"Aziridine, 1-ethenyl-","Muller and Previdoli, 1981"
 23164-74-1,LLK, C,7.6,PE,"2-Pyrrolidinone, seleno-","Andreocci, Devillanova, et al., 1980"
 616-45-5,LLK, C,9.2,PE,2-Pyrrolidinone,"Andreocci, Devillanova, et al., 1980"