CAS,Comment,Formula,IE,Method,Name,Refer
 14938-41-1, , C,7.5,PE,"Tetragermane, decamethyl-","Traven', Redchenko, et al., 1982"
 23730-73-6, , C,7.1,PE,"Cadmium, bis(manganese pentacarbonyl)-","Louwen, Andrea, et al., 1982"
 13452-92-1,RDSH, C,7.18 ¡À 0.01,EI,Decamethyl cyclopentasilane,"Pitt, Bursey, et al., 1970"
 78498-97-2,LLK, C,8.22 ¡À 0.01,EI,Ditechnetium decacarbonyl,"Michels and Svec, 1981"
 14285-68-8,LLK, C,8.49 ¡À 0.02,EI,Dirhenium decacarbonyl,"Michels and Svec, 1981"
 19824-59-0,Vertical value, C,6.89,PE,"Tantalum, pentakis(dimethylamino)-","Chisholm, Cowley, et al., 1980"
 19824-58-9,Vertical value, C,6.77,PE,"Niobium, pentakis(dimethylamino)-","Chisholm, Cowley, et al., 1980"
 2003-86-3,, C,7.41 ¡À 0.01,EI,"Trisilane,1,1,1,2,3,3,3-heptamethyl-2-(trimethylsilyl)-","Pitt, Bursey, et al., 1970"
 17988-70-4,Vertical value, C,7.82,PE,"Ethylamine, N,N-bis(trimethylsilyl)methyl]-","Bock, Kaim, et al., 1979"
 865-76-9,RDSH, C,7.29 ¡À 0.01,EI,"Tetrasilane, decamethyl-","Pitt, Bursey, et al., 1970"
 10170-69-1,LLK, C,8.32 ¡À 0.01,EI,Dimanganese decacarbonyl,"Michels and Svec, 1981"
 21686-75-9, , C,7.3,PE,"Zinc, bis(manganese pentacarbonyl)-","Louwen, Andrea, et al., 1982"
 3008-31-9,, C,9.9 ¡À 0.3,EI,Perfluoro-p-terphenyl,"Cotter, Soc. 1965"
 74632-44-3,Vertical value, C,10.2,PE,"Azobenzene,2,2',3,3',5,5',6,6'-octafluoro-4,4'-dicyano-","Petrachenko, Vovna, et al., 1993"
 141-62-8,Vertical value, C,10.24,PE,"Tetrasiloxane, decamethyl-","Ermakov, Kirichenko, et al., 1982"
 1580-19-4,LLK, C,8.28 ¡À 0.05,PE,"Anthracene, decafluoro-","Bastide, Hall, et al., 1979"
 1580-20-7,LLK, C,8.75 ¡À 0.05,PE,"Phenanthrene, decafluoro-","Bastide, Hall, et al., 1979"
 54409-77-7,Vertical value, C,7.52,PE,"Phosphine,tris[4-(1,1-dimethylethyl)phenyl]-","Weiner, Lattman, et al., 1975"
 2390-63-8,, C,6.58 ¡À 0.05,PE,"3,6-bis(diethylamino)-9-[2-(ethoxycarbonyl)phenyl]xanthylium chloride","Timoshenko, Korkoshko, et al., 1981"
 64131-87-9,Vertical value, C,7.4,PE,"Silane,[1,2,3,4,5,6-benzenehexaylhexakis(methylene)]hexakis[trimethyl-","Bock and Kaim, 1978"
 464-72-2,Vertical value, C,8.42 ¡À 0.02,PE,Benzopinacol,"Penn, Lin, et al., 1991"
 227-09-8,LLK, C,6.64 ¡À 0.02,PE,"Dibenzo[a,l]pentacene","Schmidt, 1977"
 216-08-0,LLK, C,6.62 ¡À 0.02,PE,"Dibenzo[a,c]pentacene","Schmidt, 1977"
 19716-78-0,, C,7.7 ¡À 0.1,PI,"L-Alanine, N-[N-[N-[N-(1-oxodecyl)glycyl]-L-tryptophyl]-L-alanyl]-, methyl ester","Orlov, Varshavsky, et al., 1974"
 16914-68-4,LLK, C,7.25,PE,"Dinaphtho[2,1-c:1',2'-g]phenanthrene","Obenland and Schmidt, 1975"
 222-58-2,LLK, C,7.04 ¡À 0.02,PE,"Naphtho[2,3-c]pentaphene","Schmidt, 1977"
 222-75-3,, C,6.89 ¡À 0.02,PE,Heptaphene,"Schmidt, 1977"
 222-51-5,RDSH, C,7.47,CTS,"Dibenzo[c,m]pentaphene","Briegleb, 1964"
 215-11-2, , C,7.43 ¡À 0.02,PE,"Tetrabenz[a,c,h,j]anthracene","Schmidt, 1977"
 215-96-3,, C,6.99 ¡À 0.02,PE,"Tribenz[a,c,j]naphthacene","Schmidt, 1977"
 27798-46-5,Vertical value; , C,7.19 ¡À 0.02,PE,"Benzo[c]naphtho[2,1-p]chrysene","Schmidt, 1977"
 222-81-1,, C,6.59 ¡À 0.02,PE,Benzo[p]hexaphene,"Schmidt, 1977"
 213-44-5,, C,7.17 ¡À 0.02,PE,"Dibenzo[b,n]picene","Schmidt, 1977"
 196-62-3,, C,7.35 ¡À 0.02,PE,Trinaphthylene,"Schmidt, 1977"
 17557-11-8, , C,7.45,PE,"Silane(1,4-phenylenedimethanetetrayl)hexakis","Bock, Kaim, et al., 1978"
 913-86-0,Vertical value, C,8.35 ¡À 0.05,PE,"1,2-Ethanediol, 1,1,2,2-tetrakis(4-methylphenyl)-","Penn, Lin, et al., 1991"
 2635-26-9,Vertical value; , C,7.57,PE,"Diazene, bis[4-(heptyloxy)phenyl]-, 1-oxide","Millefiori, Ciliberto, et al., 1981"
 70279-43-5,, C,6.58 ¡À 0.02,EI,"Manganese,(carbonothioyl)carbonyl[(1,2,3,4,5-¦Ç)-1-methyl-2,4-cyclopentadien-1-yl](triphenylphosphine)-","Efraty, Liebman, et al., 1980"
 12100-95-7,, C,6.55 ¡À 0.03,EI,"Manganese, dicarbonyl[(1,2,3,4,5-¦Ç","Efraty, Liebman, et al., 1980"
 32660-16-5,, C,6.37 ¡À 0.03,EI,"Manganese,dicarbonyl[(1,2,3,4,5-¦Ç","Efraty, Liebman, et al., 1980"
 32609-88-4,, C,6.38,EI,"Manganese,dicarbonyl[(1,2,3,4,5-¦Ç","Efraty, Liebman, et al., 1980"
 112313-40-3, , C,6.6,PE,"1,3-Diphosphacyclobutadiene, 1,1,3,3-tetra(diethylamino)-2,4-diphenyl-","Veszpremi, Gleiter, et al., 1988"
 17302-70-4,, C,9.1 ¡À 0.2,EI,1-(4-Butyrylphenyl)-2-(4-nitrophenyl)ethane,"Wachs and McLafferty, 1967"
 2398-68-7,, C,9.3 ¡À 0.1,EI,"Benzene, eicosyl-","King, 1965"
 2400-04-6,, C,9.0 ¡À 0.1,EI,"Benzene, (1-butylhexadecyl)-","King, 1965"
 2400-03-5,, C,9.0 ¡À 0.1,EI,"Benzene, (1-propylheptadecyl)-","King, 1965"
 2398-66-5,, C,9.2 ¡À 0.1,EI,"Benzene, (1-methylnonadecyl)-","King, 1965"
 2398-64-3,, C,9.0 ¡À 0.1,EI,"Benzene, (1-hexyltetradecyl)-","King, 1965"
 72557-70-1,RDSH, C,9.0 ¡À 0.1,EI,3-Phenyleicosane,"King, 1965"
 2398-65-4,, C,9.1 ¡À 0.1,EI,"Benzene, (1-octyldodecyl)-","King, 1965"
 190-55-6,, C,6.42 ¡À 0.02,PE,"Dibenzo[bc,kl]coronene","Clar and Schmidt, 1978"
 190-31-8,LLK, C,6.5,PE,"Dibenzo[bc,ef]coronene","Clar and Schmidt, 1977"
 129682-74-2, , C,7.4,PE,"Imidodiphosphorous acid, phenyl-, tetraphenyl ester","Pradeep and Hedge, 1990"
 58179-06-9,, C,8.28 ¡À 0.05,EI,"Bis(1,3-diphenyl-1,3-propanedionato)copper","Reichert and Westmore, 1970"
 38422-60-5,Vertical value, C,7.44,PE,"1,2,4,5-Tetrazine,hexahydro-1,3,5,6-tetrakis(4-methylphenyl)-","Katritzky, Baker, et al., 1980"
 16716-13-5,, C,8.45 ¡À 0.05,EI,"1,1':3',1'':3'',1''':3''',1''''-Quinquephenyl","Gallegos, 1967"
 3073-05-0,, C,8.18 ¡À 0.05,EI,"1,1':4',1'':4'',1''':4''',1''''-Quinquephenyl","Gallegos, 1967"
 98127-90-3, , C,8.7,PE,Dodecamethyl-[6]pericyclyne,"Houk, Scott, et al., 1985"
 15024-71-2,, C,7.70 ¡À 0.03,EI,"Iron, hexacarbonylbis[¦Ì-(diphenylphosphino)]di-","Junk, Preston, et al., 1970"
 55787-63-8, , C,5.8,PE,"Rhodium, ¦Ç","Green, Powell, et al., 1984"
 6476-37-5,Vertical value, C,7.94,PE,dicyclohexylphenylphosphine,"Goetz, Marschner, et al., 1976"
 14244-35-0,, C,7.81 ¡À 0.05,EI,"tris(3-methylpentane-2,4-dionato-O,O')chromium","Bancroft, Reichert, et al., 1969"
 14899-07-1,, C,6.94 ¡À 0.05,PE,"Benzoic acid, 2-[6-(ethylamino)-3-(ethylimino)-3H-xanthen-9-yl-, ethyl ester","Timoshenko, Korkoshko, et al., 1981"
 73321-10-5,Vertical value, C,6.94,PE,"9-Azabicyclo[3.3.1]nonane,9-[4-(1,1-dimethylethyl)phenyl]","Nelsen, Kessel, et al., 1980"
 1172-76-5,, C,8.05 ¡À 0.15,EI,"Disilane, 1,2-dimethyl-1,1,2,2-tetraphenyl-","Gaidis, Briggs, et al., 1971"
 191-13-9,, C,6.98,CTS,Pyranthrene,"Kuroda, 1964"
 385-13-7,LLK, C,6.9,PE,"Tetrabenzo[de,hi,mn,qr]naphthacene","Clar and Schmidt, 1979"
 188-72-7,, C,6.42 ¡À 0.02,PE,"Tribenzo[de,kl,rst]pentaphene","Clar and Schmidt, 1978"
 190-81-8, , C,7.13,PE,"Tribenzo[b,n,pqr]perylene","Clar and Schmidt, 1977"
 59804-80-7,, C,7.45,CTS,"Quinolinium,1,3-dihydro-1,3-dioxo-2H-inden-2-ylide","Kampars and Neilands, 1975"
 5869-31-8,Vertical value, C,6.78,PE,"Benzo[uv]naphtho[2,1,8,7-defg]pentacene","Clar and Schmidt, 1977"
 190-87-4,LLK, C,6.97,PE,"Benzo[qr]naphtho[2,1,8,7-fghi]pentacene","Clar and Schmidt, 1977"
 188-42-1,, C,6.58,CTS,"Naphthaceno[2,1,12,11-opqra]naphthacene","Briegleb, 1964"
 14258-76-5,Vertical value; , C,7.04,PE,"Benzo[st]naphtho[2,1,8,7-defg]pentacene","Clar and Schmidt, 1977"
 190-85-2, , C,6.77,PE,"Anthra[1,2,3,4-ghi]perylene","Clar and Schmidt, 1977"
 36516-81-1,Vertical value, C,6.19,PE,"Thieno[3,4-c]thiophene-2,5-5(iv),1,3,4,6-tetraphenyl-","Muller, Schweig, et al., 1976"
 603-36-1,LLK, C,7.26 ¡À 0.05,PI,"Stibine, triphenyl-","Potapov, Rodionov, et al., 1974"
 101-02-0,RDSH, C,8.6,EI,"Phosphorous acid, triphenyl ester","Muller and Fenderl, 1969"
 639-58-7,Vertical value, C,9.29 ¡À 0.05,PE,Chlorotriphenyl tin,"Distefano, Pignataro, et al., 1976"
 603-34-9,LLK, C,6.75 ¡À 0.01,PE,"Benzenamine, N,N-diphenyl-","Debies and Rabalais, 1974"
 77787-79-2,LBLHLM, C,7.15 ¡À 0.05,PE,"Ethenol, 2-phenyl-1,2-bis(2,4,6-trimethylphenyl)-","Lecoultre, Heilbronner, et al., 1986"
 77787-80-5,LBLHLM, C,6.90 ¡À 0.05,PE,"Ethenol, 2-phenyl-1,2-bis(2,4,6-trimethylphenyl)-","Lecoultre, Heilbronner, et al., 1986"
 77787-77-0,LBLHLM, C,7.8,PE,"Ethanone, 2-phenyl-1,2-bis(2,4,6-trimethylphenyl)-","Lecoultre, Heilbronner, et al., 1986"
 77787-78-1,LBLHLM, C,7.7 ¡À 0.1,PE,"Ethanone, 1-phenyl-2,2-bis(2,4,6-trimethylphenyl)-","Lecoultre, Heilbronner, et al., 1986"
 603-35-0,LLK, C,7.44 ¡À 0.05,PI,"Phosphine, triphenyl-","Potapov, Rodionov, et al., 1974"
 603-33-8,LLK, C,7.45 ¡À 0.05,PI,"Bismuthine, triphenyl-","Potapov, Rodionov, et al., 1974"
 14588-79-5,, C,7.5,EI,Triphenylphosphineiron dinitrosyl iodide,"Pignataro, Distefano, et al., 1970"
 1088-02-4,, C,8.46 ¡À 0.03,PI,"Gallium, triphenyl-","Rodionov, Potapov, et al., 1973"
 14318-98-0,, C,7.6,EI,Triphenylphosphinecobalt dinitrosyl iodide,"Pignataro, Distefano, et al., 1970"
 1776-70-1,Vertical value, C,8.12 ¡À 0.05,PE,"Arsenotrithious acid, triphenyl ester","Distefano, Modelli, et al., 1981"
 603-32-7,LLK, C,7.32 ¡À 0.05,PI,"Arsine, triphenyl-","Potapov, Rodionov, et al., 1974"
 960-71-4,LLK, C,8.60 ¡À 0.03,PI,"Borane, triphenyl-","Rodionov, Potapov, et al., 1973"
 14318-88-8,, C,7.7,EI,Triphenylphosphinecobalt dinitrosyl bromide,"Pignataro, Distefano, et al., 1970"
 38831-62-8,, C,7.7,EI,Triphenylphosphineiron dinitrosyl bromide,"Pignataro, Distefano, et al., 1970"
 3005-32-1,Vertical value, C,9.17 ¡À 0.05,PE,"Germane, bromotriphenyl-","Distefano, Pignataro, et al., 1976"
 841-76-9,, C,8.53 ¡À 0.03,PI,"Aluminum,triphenyl-","Rodionov, Potapov, et al., 1973"
 104389-95-9,Vertical value, C,4.70 ¡À 0.05,PE,"Zirconium, ¦Ç","Andrea, Terpstra, et al., 1986"
 104469-59-2,Vertical value, C,5.28 ¡À 0.05,PE,"Titanium, ¦Ç","Andrea, Terpstra, et al., 1986"
 961-38-6,LBLHLM, C,6.9,PE,"Benzenamine, 2,4,6-tris(1,1-dimethylethyl)-","Cetinkaya, Lappert, et al., 1983"
 4430-09-5,, C,7.1,CTS,"N,N-Dihexylaniline","Briegleb and Czekalla, 1959"
 3007-74-7,, C,7.5,CTS,"Benzenamine, N-dodecyl-","Briegleb and Czekalla, 1959"
 62622-57-5,, C,7.2 ¡À 0.2,PE,"Benzene,1,1'-(1,3,5,7,9,11,13-tetradecaheptaene-1,14-diyl)bis-","Hudson, Ridyard, et al., 1976"
 29334-75-6,, C,7.59 ¡À 0.05,PE,"Hydrazine,1,2-diphenyl-1,2-bis(phenylmethyl)-","Rademacher, Bass, et al., 1977"
 38580-43-7,, C,7.92,CTS,"Trisilane,1,1,2,2,3,3-hexamethyl-1,3-di-1-naphthalenyl-","Pitt, Carey, et al., 1972"
 32886-16-1,, C,8.3 ¡À 0.1,PI,"L-Tyrosine,N-[s-(2-methoxy-2-oxoethyl)-N-(1-oxodecyl)-L-cysteinyl]-methyl ester","Orlov, Varshavsky, et al., 1974"
 37216-50-5, , C,7.2,PE,"Hexaosmium, octadecacarbonyl","Green, Mingos, et al., 1981"
 98583-25-6,Vertical value, C,9.75,PE,"Diazene, bis(2,3,5,6-tetrafluoro-4-(trifluoromethyl)phenyl)-1-oxide","Furin, Petrachenko, et al., 1989"
 65171-20-2,Vertical value, C,10,PE,"Azobenzene,2,2',3,3',5,5',6,6'-octafluoro-4,4'-di(trifluoromethyl)-","Petrachenko, Vovna, et al., 1993"
 16088-84-9,, C,7.1,CTS,"N,N-Didecylaniline","Briegleb and Czekalla, 1959"
 188-96-5,LLK, C,6.72 ¡À 0.02,PE,"Dibenzo[cd,lm]perylene","Clar and Schmidt, 1978"
 148274-47-9, , C,7.5,PE,Neodymium tris(bis(trimethylsilyl)amide),"Green, Payne, et al., 1982"
 3704-48-1,, C,6.82 ¡À 0.02,EI,Octadecamethyloctasilane,"Pitt, Bursey, et al., 1970"
 190-95-4,LLK, C,7.12,PE,"Dibenzo[b,pqr]perylene","Clar and Schmidt, 1977"
 37512-31-5, , C,7.15,PE,Chromium tris(bis(trimethylsilyl)amide),"Green, Payne, et al., 1982"
 190-84-1, , C,6.96,PE,"Naphtho[1,2,3,4-ghi]perylene","Clar and Schmidt, 1977"
 188-89-6,, C,6.82 ¡À 0.04,PE,"Naphtho[8,1,2-bcd]perylene","Boschi, Clar, et al., 1974"
 5869-30-7,Vertical value, C,6.99,PE,"Dibenzo[b,ghi]perylene","Clar and Schmidt, 1977"
 187-83-7, , C,7.37,PE,Hexahelicene,"Obenland and Schmidt, 1975"
 239-98-5,LLK, C,6.61 ¡À 0.02,PE,Benzo[a]pentacene,"Schmidt, 1977"
 215-26-9,LLK, C,7.4,PE,"Naphtho[1,2-b]triphenylene","Clar and Schmidt, 1975"
 222-54-8,LLK, C,7.20 ¡À 0.02,PE,Benzo[c]pentaphene,"Schmidt, 1977"
 222-78-6,LLK, C,6.92 ¡À 0.02,PE,Hexaphene,"Schmidt, 1977"
 216-00-2,LLK, C,6.97,PE,"Dibenzo[a,c]naphthacene","Clar and Schmidt, 1979"
 191-68-4,LLK, C,7.2,PE,"Dibenzo[g,p]chrysene","Clar and Schmidt, 1979"
 196-64-5, , C,7.15 ¡À 0.04,PE,"Naphtho[2,3-g]chrysene","Boschi, Clar, et al., 1974"
 217-54-9,, C,6.98 ¡À 0.02,PE,"Dibenzo[b,k]chrysene","Schmidt, 1977"
 746-47-4,LLK, C,7.27 ¡À 0.04,PE,"9H-Fluorene, 9-(9H-fluoren-9-ylidene)-","Boschi, Clar, et al., 1974"
 227-04-3,LLK, C,6.99 ¡À 0.02,PE,"Dibenzo[a,j]naphthacene","Schmidt, 1977"
 217-42-5,, C,7.17 ¡À 0.02,PE,Benzo[b]picene,"Schmidt, 1977"
 220-77-9,, C,7.19 ¡À 0.02,PE,"Naphtho[1,2-b]chrysene","Schmidt, 1977"
 220-82-6,, C,6.83 ¡À 0.02,PE,"Naphtho[2,1-a]naphthacene","Schmidt, 1977"
 258-31-1, , C,6.36,PE,Hexacene,"Clar, Robertson, et al., 1981"
 217-37-8, , C,7.36 ¡À 0.02,PE,benzo[c]picene,"Schmidt, 1977"
 214-91-5, , C,7.30 ¡À 0.04,PE,Benzo[h]pentaphene,"Boschi, Clar, et al., 1974"
 195-00-6,, C,6.92,CTS,"2,3:8,9-Dibenzochrysene","Matsen, 1956"
 5848-64-6,Vertical value; , C,7.05,PE,"Tri(N,N-di-n-propylamino)phosphine","Worley, Hargis, et al., 1982"
 28752-34-3,, C,8.30 ¡À 0.07,EI,"Cyclopropanecarbonitrile, 2-[p-(dimethylamino)phenyl]-1-(p-nitrophenyl)-","Lageot, 1971"
 23978-09-8,LBLHLM, C,7.5,PE,"4,7,13,16,21,24-Hexaoxa-1,10-diazabicyclo[8.8.8]hexacosane","Baker, Armen, et al., 1983"
 73650-66-5,Vertical value, C,7.35,PE,"5,14-Ethenobenzocyclododecen-8,11-imine,6,7,12,13-tetrahydro-","Kovac, Allan, et al., 1980"
 1707-75-1,Vertical value, C,7.3,PE,"Hydrazine, 1,1-diphenyl-2-(2,4,6-trinitrophenyl)-","Yamamoto, Nagashima, et al., 1990"
 2642-98-0,, C,7.0 ¡À 0.1,CTS,6-Chrysenamine,"Farrell and Newton, 1966"
 1150-62-5,, C,7.7 ¡À 0.1,EI,"9H-Carbazole, 9-phenyl-","Riepe and Zander, 1969"
 62050-82-2,Vertical value, C,6.95,PE,"Uranium, bromotris[(1,2,3,4,5-¦Ç","Fragala, Ciliberto, et al., 1976"
 34230-61-0, , C,6.6,PE,"Platinum, di-1-propynylbis(triethylphosphine)-","Louwen, Hengelmolen, et al., 1984"
 34230-60-9, , C,7,PE,"Palladium, di-1-propynylbis(triethylphosphine)-","Louwen, Hengelmolen, et al., 1984"
 59305-32-7,Vertical value, C,7.85,PE,"Silane,[1,3,5-benzenetriyltris(methylene)tris[trimethyl-","Bock and Kaim, 1978"
 17156-61-5,Vertical value, C,8.3,PE,"1,2,4,5-Tetrakis(trimethylsilyl)benzene","Bock and Kaim, 1979"
 17438-50-5,, C,8.1 ¡À 0.2,EI,1-(4-Aminophenyl)-2-(4-butyrylphenyl)ethane,"Wachs and McLafferty, 1967"
 59834-82-1,Vertical value, C,7.1,PE,"Uranium,chlorotris[(1,2,3,4,5-¦Ç)-1-methyl-2,4-cyclopentadien-1-yl]-","Fragala, Ciliberto, et al., 1976"
 62156-90-5,Vertical value, C,7.75,PE,"Thorium, chlorotris](1,2,3,4,5-¦Ç","Fragala, Ciliberto, et al., 1976"
 64174-59-0,Vertical value, C,7.15,PE,"Silane,[2,3-bis(trimethylsilyl)methyl]-2-butene-1,4-diyl]bis[trimethyl-","Bock and Kaim, 1980"
 17156-62-6,Vertical value, C,7,PE,"Silane,2,5-cyclohexadiene-1,4-diyltetrakis[trimethyl-","Bock and Kaim, 1980"
 19851-68-4,Vertical value, C,6.3,PE,"Chromium, tris(diisopropylamino)-","Chisholm, Cowley, et al., 1980"
 32589-49-4,, C,7.10 ¡À 0.05,EI,"Cyclopropanecarbonitrile, 1-(p-bromophenyl)-2-[p-(dimethylamino)phenyl]-","Lageot, 1971"
 4074-25-3,Vertical value, C,8.78,PE,"2,4,6 Tri-tert-butylnitrobenzene","Cetinkaya, Lappert, et al., 1983"
 24973-59-9,Vertical value; , C,8.69,PE,"2,4,6-Tri-t-butyl-nitrosobenzene","Cetinkaya, Lappert, et al., 1983"
 62156-96-1,Vertical value, C,6.35,PE,"Uranium,tris[(1,2,3,4,5-¦Ç","Fragala, Ciliberto, et al., 1976"
 73321-09-2,Vertical value, C,7.34,PE,"9-Azabicyclo[3.3.1]nonan-3-one, 9-(4-tert-butylphenyl-","Nelsen, Kessel, et al., 1980"
 31039-82-4,LBLHLM, C,7.5,PE,"2,4,6-Tri-t-butyl-1-iodobenzene","Cetinkaya, Lappert, et al., 1983"
 3975-77-7,LBLHLM, C,8,PE,"2,4,6-Tri-t-butyl-1-bromobenzene","Cetinkaya, Lappert, et al., 1983"
 40438-56-0,Vertical value, C,8.39,PE,"Phosphine,dicyclohexyl(4-nitrophenyl)-","Goetz, Marschner, et al., 1976"
 10125-18-5,, C,8.47 ¡À 0.05,EI,"Benzene,1,1'-[1,6-hexanediylbis(oxy)]bis-","Schwarz, Petersen, et al., 1977"
 40438-62-8,Vertical value, C,8.14,PE,"Phosphine, (4-chlorophenyl)dicyclohexyl-","Goetz, Marschner, et al., 1976"
 54-05-7,, C,7.84,CTS,Chloroquine,"Slifkin and Allison, 1967"
 38256-33-6,, C,8.9,EI,"Piperidine, 1,1'-(1,2-phenylenedicarbonyl)bis-","Bohlmann, Herrmann, et al., 1974"
 15088-30-9,, C,8.8,EI,"Piperidine, 1,1'-(1,4-phenylenedicarbonyl)bis-","Bohlmann, Herrmann, et al., 1974"
 63378-84-7,, C,7.24 ¡À 0.05,PE,"Hydrazine,1,2-diphenyl-1,2-dipropyl-","Rademacher, Bass, et al., 1977"
 63378-85-8,, C,7.20 ¡À 0.05,PE,"Hydrazine,1,2-bis(1-methylethyl)-1,2-diphenyl-","Rademacher, Bass, et al., 1977"
 61012-91-7,Vertical value, C,7.71,PE,"1,2,4,5-Tetrazine,hexahydro-1,4-dimethyl-2,5-bis(phenylmethyl)-","Katritzky, Baker, et al., 1980"
 59950-13-9,, C,8.26 ¡À 0.05,EI,"Benzene,[(6-phenoxyhexyl)thio]-","Schwarz, Petersen, et al., 1977"
 63378-90-5,, C,7.15 ¡À 0.05,PE,"2,3-Diazabicyclo[2.2.2]octane,2,3-diphenyl-","Rademacher, Bass, et al., 1977"
 1272-71-5,Vertical value, C,5.61 ¡À 0.05,PE,"Vanadium,bis[(1,2,3,4,5,6-¦Ç)-1,3,5-trimethylbenzene]-","Evans, Green, et al., 1974"
 1274-07-3,RDSH, C,5.47 ¡À 0.05,EI,Bis(¦Ç,"Herberich and Muller, 1969"
 57820-96-9,Vertical value; , C,5.04,PE,Bis-(¦Ç,"Cabelli, Cowley, et al., 1982"
 1982-37-2,, C,7.25 ¡À 0.10,CTS,Methdilazine,"Fulton and Lyons, 1968"
 52881-76-2,, C,8.7,EI,"Pyridine, 1,1'-(1,2-phenylenedicarbonyl)bis[1,2,3,4-tetrahydro-","Bohlmann, Herrmann, et al., 1974"
 52881-77-3,, C,8.7,EI,"Pyridine, 1,1'-(1,4-phenylenedicarbonyl)bis[1,2,3,4-tetrahydro-","Bohlmann, Herrmann, et al., 1974"
 108603-67-4, , C,5.95,PE,"Ditungsten tetraacetate, dineopentyl-","Chisholm, Clark, et al., 1987"
 98150-63-1, , C,6.4,PE,"1,10-Dithia[10]ferrocenophane","Vondrak and Sato, 1989"
 1610-39-5,LLK, C,7.70 ¡À 0.05,PE,"Triphenylene, 1,2,3,4,5,6,7,8,9,10,11,12-dodecahydro-","Heilbronner, Kovac, et al., 1981"
 12131-50-9,Vertical value, C,5.13 ¡À 0.05,PE,"Molybdenum,bis[(1,2,3,4,5,6-¦Ç)-1,3,5-trimethylbenzene]-","Evans, Green, et al., 1974"
 110142-81-9, , C,7.45,PE,"Ditungsten tetrakis(trifluoroacetate), dineopentyl-","Chisholm, Clark, et al., 1987"
 91266-48-7,, C,7.9,PE,Tetracyclo[8.2.2.2,"McMurry, Haley, et al., 1984"
 41367-67-3,Vertical value; , C,6.08,PE,Bis(¦Ç,"Green, Payne, et al., 1983"
 65317-00-2, , C,6.8,PE,"[2.2]-Paracyclophane, 2,5-dimethoxy-","Gleiter, Schafer, et al., 1988"
 25401-40-5,Vertical value, C,8.13 ¡À 0.03,PE,"6,14-Methanobenzocyclotridecene-16-one,8,9,10,11,12,12-hexahydro-","Allan, Heilbronner, et al., 1975"
 23315-55-1,Vertical value; , C,7.64,PE,Azoxy-bis-[p-n-propoxybenzene],"Millefiori, Ciliberto, et al., 1981"
 84-96-8,, C,7.28 ¡À 0.03,CTS,Trimeprazine,"Fulton and Lyons, 1968"
 60-91-3,, C,7.85 ¡À 0.07,CTS,Diethazine,"Poltorakov, Pirnazarova, et al., 1973"
 7624-74-0,, C,8.18 ¡À 0.07,CTS,"10H-Phenothiazine-10-ethanamine,2-methoxy-N,N,¦Á-trimethyl-","Poltorakov, Pirnazarova, et al., 1973"
 50-47-5,, C,7.39 ¡À 0.06,CTS,Desipramine,"Fulton and Lyons, 1968"
 52881-78-4,, C,8.7,EI,"Pyridine,1,2,3,4-tetrahydro-1-[4-(1-piperidinylcarbonyl)benoyl]-","Bohlmann, Herrmann, et al., 1974"
 55705-29-8,Vertical value, C,7.98,PE,Tricyclo[9.3.1.1,"Koenig, Tuttle, et al., 1974"
 21113-55-3,, C,8.9 ¡À 0.2,EI,"Benzene, 1,1'-cyclohexylidenebis-","Fortin, Forest, et al., 1973"
 35117-18-1,LLK, C,7.4,PE,Tricyclo[8.2.2.2,"Zhong-zhi, Kovak, et al., 1981"
 80548-37-4,Vertical value; , C,7.85 ¡À 0.05,PE,Tricyclo[8.2.2.2,"Zhong-zhi, Kovak, et al., 1981"
 23927-47-1,Vertical value; , C,7.85 ¡À 0.05,PE,Tricyclo[8.2.2.2,"Zhong-zhi, Kovak, et al., 1981"
 74203-39-7,LLK, C,8.12 ¡À 0.08,PE,Tricyclo[3.3.1.1,"Elbel, Lienert, et al., 1981"
 60700-47-2,Vertical value, C,8.14,PE,"Naphthacene,1,4,5,6,7,10,11,12-octahydro-","Heilbronner, Brogli, et al., 1976"
 17044-68-7,, C,7.93 ¡À 0.03,EI,"1,2:3,4-Dicyclooctenobenzene","Meier, Heiss, et al., 1968"
 63796-67-8,Vertical value, C,8.26,PE,"Iron, dicarbonylbis(2,6-dimethyl-1-piperidinecarbodithioato-s,s')-(oc-6-21)-","Cauletti, Duffy, et al., 1977"
 127517-53-7,Vertical value, C,6.85 ¡À 0.02,PE,"Molybdenum, [1,3-propanediolato(2-)-o,o'-)oxo[tris(3,5-dimethyl-1H-pyrazolato-N')hydroborato(1-)-N","Chang, Rai-Chaudhuri, et al., 1990"
 31741-94-3,Vertical value, C,5.22,PE,"Chromium, bis[trimethyl(¦Ç","Cabelli, Cowley, et al., 1982"